+----------------------------+
| Elk version 4.0.15 started |
+----------------------------+

Date (YYYY-MM-DD) : 2019-01-25
Time (hh:mm:ss)   : 08:25:47

All units are atomic (Hartree, Bohr, etc.)

+-------------------------------------------------+
| Ground-state run starting from atomic densities |
+-------------------------------------------------+

Lattice vectors :
   0.000000000      0.5000000000      0.5000000000    
  0.5000000000       0.000000000      0.5000000000    
  0.5000000000      0.5000000000       0.000000000    

Reciprocal lattice vectors :
  -6.283185307       6.283185307       6.283185307    
   6.283185307      -6.283185307       6.283185307    
   6.283185307       6.283185307      -6.283185307    

Unit cell volume      :   0.2500000000    
Brillouin zone volume :    992.2008538    

Species :    1 (Pb)
 parameters loaded from : Pb.in
 name : lead
 nuclear charge    :   -82.00000000    
 electronic charge :    82.00000000    
 atomic mass :    377702.4940    
 muffin-tin radius :   0.3285533906    
 number of radial points in muffin-tin :    697
 number on inner part of muffin-tin    :    469
 atomic positions (lattice), magnetic fields (Cartesian) :
   1 :   0.00000000  0.00000000  0.00000000    0.00000000  0.00000000  0.00000000

Total number of atoms per unit cell :    1

Spin treatment :
 spin-polarised
 spin-orbit coupling
 global magnetic field (Cartesian) :    0.000000000       0.000000000       0.000000000    
 non-collinear magnetisation

Number of Bravais lattice symmetries :   48
Number of crystal symmetries         :   48
Crystal has inversion symmetry
Real symmetric eigensolver will be used

k-point grid :      8     8     8
k-point offset :    0.000000000       0.000000000       0.000000000    
k-point set is reduced with full crystal symmetry group
Total number of k-points :       29

Muffin-tin radius times maximum |G+k| :    8.000000000    
 using average radius
Maximum |G+k| for APW functions       :    24.34916281    
Maximum (1/2)|G+k|^2                  :    296.4408648    
Maximum |G| for potential and density :    48.69832662    
Constant for pseudocharge density :    4
Radial integration step length :    4

G-vector grid sizes :     12    12    12
Number of G-vectors :      531

Maximum angular momentum used for
 APW functions                      :    8
 H and O matrix elements outer loop :    7
 outer part of muffin-tin           :    7
 inner part of muffin-tin           :    3

Total nuclear charge    :   -82.00000000    
Total core charge       :    68.00000000    
Total valence charge    :    14.00000000    
Total excess charge     :    0.000000000    
Total electronic charge :    82.00000000    

Effective Wigner radius, r_s :   0.8995235040E-01

Number of empty states         :    8
Total number of valence states :   32
Total number of core states    :   68

Total number of local-orbitals :   15

Exchange-correlation functional :      3     0     0
 Perdew-Wang/Ceperley-Alder, Phys. Rev. B 45, 13244 (1992)
 Local density approximation (LDA)

Smearing type :    3
 Fermi-Dirac
Smearing width :   0.1000000000E-02
Effective electronic temperature (K) :    315.7750425    

Mixing type :    1
 Adaptive linear mixing

Density and potential initialised from atomic data

+------------------------------+
| Self-consistent loop started |
+------------------------------+

+--------------------+
| Loop number :    1 |
+--------------------+

Energies :
 Fermi                       :      24.4203883265    
 sum of eigenvalues          :     -5865.46276311    
 electron kinetic            :      28456.6690013    
 core electron kinetic       :      25280.4976841    
 Coulomb                     :     -50072.0064409    
 Coulomb potential           :     -33545.4302888    
 nuclear-nuclear             :     -12036.0705396    
 electron-nuclear            :     -42526.4415139    
 Hartree                     :      4490.50561257    
 Madelung                    :     -33299.2912965    
 xc potential                :     -776.701475619    
 xc effective B-field        :    -0.149862651466E-07
 external B-field            :      0.00000000000    
 exchange                    :     -573.969112375    
 correlation                 :     -10.6065194326    
 electron entropic           :    -0.714303030033E-04
 total energy                :     -22199.9131429    
 (external B-field energy excluded from total)

Density of states at Fermi energy :    24.67827484    
 (states/Hartree/unit cell)

Estimated indirect band gap :   0.2612898986E-02
 from k-point      6 to k-point     22
Estimated direct band gap   :   0.4392693241    
 at k-point      6

Charges :
 core                        :    68.00000000    
 valence                     :    14.00000000    
 interstitial                :    14.92502303    
 muffin-tins (core leakage)
  species :    1 (Pb)
   atom    1                 :    67.07497697     (   35.23148177    )
 total in muffin-tins        :    67.07497697    
 total calculated charge     :    46.76944039    
 total charge                :    82.00000000    
 error                       :    35.23055961    

Moments :
 interstitial                :  -0.1894322764E-28 -0.1140812664E-27  0.1358920643E-28
 muffin-tins
  species :    1 (Pb)
   atom    1                 :   0.1092956928E-22 -0.3261512449E-22 -0.8037896590E-22
 total in muffin-tins        :   0.1092956928E-22 -0.3261512449E-22 -0.8037896590E-22
 total moment                :   0.1092955033E-22 -0.3261523857E-22 -0.8037895231E-22

Time (CPU seconds) :         4.78

+--------------------+
| Loop number :    2 |
+--------------------+

Energies :
 Fermi                       :      26.1126511806    
 sum of eigenvalues          :     -5789.58468892    
 electron kinetic            :      28421.3098844    
 core electron kinetic       :      25152.8162349    
 Coulomb                     :     -49930.4668351    
 Coulomb potential           :     -33436.4724460    
 nuclear-nuclear             :     -12036.0705396    
 electron-nuclear            :     -42352.3201450    
 Hartree                     :      4457.92384954    
 Madelung                    :     -33212.2306121    
 xc potential                :     -774.422127390    
 xc effective B-field        :    -0.169620883597E-07
 external B-field            :      0.00000000000    
 exchange                    :     -572.263944861    
 correlation                 :     -10.6007889531    
 electron entropic           :    -0.620664139294E-04
 total energy                :     -22092.0217465    
 (external B-field energy excluded from total)

Density of states at Fermi energy :    21.97586513    
 (states/Hartree/unit cell)

Estimated indirect band gap :   0.2102840037E-01
 from k-point      6 to k-point     22
Estimated direct band gap   :   0.4926211446    
 at k-point      6

Charges :
 core                        :    68.00000000    
 valence                     :    14.00000000    
 interstitial                :    15.07373272    
 muffin-tins (core leakage)
  species :    1 (Pb)
   atom    1                 :    66.92626728     (   35.47284456    )
 total in muffin-tins        :    66.92626728    
 total calculated charge     :    46.52805235    
 total charge                :    82.00000000    
 error                       :    35.47194765    

Moments :
 interstitial                :   0.7703383058E-25 -0.1327581347E-24 -0.8879556795E-25
 muffin-tins
  species :    1 (Pb)
   atom    1                 :  -0.8364279066E-22  0.4075847218E-22  0.1493578293E-22
 total in muffin-tins        :  -0.8364279066E-22  0.4075847218E-22  0.1493578293E-22
 total moment                :  -0.8356575683E-22  0.4062571404E-22  0.1484698736E-22

RMS change in Kohn-Sham potential (target) :    14.81968012     (  0.1000000000E-05)
Absolute change in total energy (target)   :    107.8913964     (  0.1000000000E-03)

Time (CPU seconds) :         6.89

+--------------------+
| Loop number :    3 |
+--------------------+

Energies :
 Fermi                       :      28.2826192769    
 sum of eigenvalues          :     -5692.55897028    
 electron kinetic            :      28371.8742007    
 core electron kinetic       :      25009.8358069    
 Coulomb                     :     -49743.6836651    
 Coulomb potential           :     -33293.0078066    
 nuclear-nuclear             :     -12036.0705396    
 electron-nuclear            :     -42122.2184445    
 Hartree                     :      4414.60531892    
 Madelung                    :     -33097.1797618    
 xc potential                :     -771.425364361    
 xc effective B-field        :    -0.195487172827E-07
 external B-field            :      0.00000000000    
 exchange                    :     -570.022102637    
 correlation                 :     -10.5932289279    
 electron entropic           :    -0.620342125373E-04
 total energy                :     -21952.4248580    
 (external B-field energy excluded from total)

Density of states at Fermi energy :    21.97345584    
 (states/Hartree/unit cell)

Estimated indirect band gap :   0.5468495424E-01
 from k-point      6 to k-point     22
Estimated direct band gap   :   0.5716209814    
 at k-point      6

Charges :
 core                        :    68.00000000    
 valence                     :    14.00000000    
 interstitial                :    15.26948502    
 muffin-tins (core leakage)
  species :    1 (Pb)
   atom    1                 :    66.73051498     (   35.77692554    )
 total in muffin-tins        :    66.73051498    
 total calculated charge     :    46.22393554    
 total charge                :    82.00000000    
 error                       :    35.77606446    

Moments :
 interstitial                :   0.2390820116E-24  0.2904428513E-25  0.4889579278E-25
 muffin-tins
  species :    1 (Pb)
   atom    1                 :  -0.3544018689E-22 -0.6903622009E-23  0.4753114338E-22
 total in muffin-tins        :  -0.3544018689E-22 -0.6903622009E-23  0.4753114338E-22
 total moment                :  -0.3520110488E-22 -0.6874577724E-23  0.4758003917E-22

RMS change in Kohn-Sham potential (target) :    11.47260093     (  0.1000000000E-05)
Absolute change in total energy (target)   :    166.5697376     (  0.1000000000E-03)

Time (CPU seconds) :         9.06

+--------------------+
| Loop number :    4 |
+--------------------+

Energies :
 Fermi                       :      30.5577328933    
 sum of eigenvalues          :     -5591.35337392    
 electron kinetic            :      28316.2470178    
 core electron kinetic       :      24874.7831759    
 Coulomb                     :     -49543.1739438    
 Coulomb potential           :     -33139.3815322    
 nuclear-nuclear             :     -12036.0705396    
 electron-nuclear            :     -41874.8252762    
 Hartree                     :      4367.72187202    
 Madelung                    :     -32973.4831777    
 xc potential                :     -768.218859571    
 xc effective B-field        :    -0.223332378475E-07
 external B-field            :      0.00000000000    
 exchange                    :     -567.623385273    
 correlation                 :     -10.5850994997    
 electron entropic           :    -0.621528333157E-04
 total energy                :     -21805.1354729    
 (external B-field energy excluded from total)

Density of states at Fermi energy :    21.98325202    
 (states/Hartree/unit cell)

Estimated indirect band gap :   0.4638626640E-01
 from k-point     13 to k-point     22
Estimated direct band gap   :   0.6687873884    
 at k-point      6

Charges :
 core                        :    68.00000000    
 valence                     :    14.00000000    
 interstitial                :    15.48148674    
 muffin-tins (core leakage)
  species :    1 (Pb)
   atom    1                 :    66.51851326     (   36.09021999    )
 total in muffin-tins        :    66.51851326    
 total calculated charge     :    45.91059946    
 total charge                :    82.00000000    
 error                       :    36.08940054    

Moments :
 interstitial                :  -0.3973664978E-24 -0.7153804331E-25 -0.2050958112E-25
 muffin-tins
  species :    1 (Pb)
   atom    1                 :   0.1995807251E-22  0.1126406950E-22 -0.2659615774E-22
 total in muffin-tins        :   0.1995807251E-22  0.1126406950E-22 -0.2659615774E-22
 total moment                :   0.1956070601E-22  0.1119253145E-22 -0.2661666732E-22

RMS change in Kohn-Sham potential (target) :    7.967539018     (  0.1000000000E-05)
Absolute change in total energy (target)   :    188.9318195     (  0.1000000000E-03)

Time (CPU seconds) :        11.28

+--------------------+
| Loop number :    5 |
+--------------------+

Energies :
 Fermi                       :      32.6040296622    
 sum of eigenvalues          :     -5501.11322870    
 electron kinetic            :      28264.6219706    
 core electron kinetic       :      24765.4992207    
 Coulomb                     :     -49361.3806348    
 Coulomb potential           :     -33000.4213450    
 nuclear-nuclear             :     -12036.0705396    
 electron-nuclear            :     -41650.1988456    
 Hartree                     :      4324.88875029    
 Madelung                    :     -32861.1699624    
 xc potential                :     -765.313854290    
 xc effective B-field        :    -0.248361130461E-07
 external B-field            :      0.00000000000    
 exchange                    :     -565.450248626    
 correlation                 :     -10.5776873497    
 electron entropic           :    -0.104500512427E-03
 total energy                :     -21672.7867047    
 (external B-field energy excluded from total)

Density of states at Fermi energy :    35.33450625    
 (states/Hartree/unit cell)

Estimated indirect band gap :   0.1500405219    
 from k-point     14 to k-point     22
Estimated direct band gap   :   0.2725810017    
 at k-point     13

Charges :
 core                        :    68.00000000    
 valence                     :    14.00000000    
 interstitial                :    15.67863139    
 muffin-tins (core leakage)
  species :    1 (Pb)
   atom    1                 :    66.32136861     (   36.36770562    )
 total in muffin-tins        :    66.32136861    
 total calculated charge     :    45.63307464    
 total charge                :    82.00000000    
 error                       :    36.36692536    

Moments :
 interstitial                :  -0.1278050488E-23 -0.8549983007E-24 -0.1077341976E-24
 muffin-tins
  species :    1 (Pb)
   atom    1                 :   0.3498304799E-22 -0.8558874651E-23 -0.7685831151E-22
 total in muffin-tins        :   0.3498304799E-22 -0.8558874651E-23 -0.7685831151E-22
 total moment                :   0.3370499751E-22 -0.9413872952E-23 -0.7696604571E-22

RMS change in Kohn-Sham potential (target) :    4.874652278     (  0.1000000000E-05)
Absolute change in total energy (target)   :    179.5817230     (  0.1000000000E-03)

Time (CPU seconds) :        13.49

+--------------------+
| Loop number :    6 |
+--------------------+

Energies :
 Fermi                       :      34.2037821757    
 sum of eigenvalues          :     -5431.16922940    
 electron kinetic            :      28225.7302692    
 core electron kinetic       :      24690.2129252    
 Coulomb                     :     -49221.6803761    
 Coulomb potential           :     -32893.8260421    
 nuclear-nuclear             :     -12036.0705396    
 electron-nuclear            :     -41477.3936310    
 Hartree                     :      4291.78379444    
 Madelung                    :     -32774.7673551    
 xc potential                :     -763.073456421    
 xc effective B-field        :    -0.282072345878E-07
 external B-field            :      0.00000000000    
 exchange                    :     -563.774314571    
 correlation                 :     -10.5719281259    
 electron entropic           :    -0.632488806010E-04
 total energy                :     -21570.2964129    
 (external B-field energy excluded from total)

Density of states at Fermi energy :    22.16608354    
 (states/Hartree/unit cell)

Estimated indirect band gap :   0.6905858015E-02
 from k-point     11 to k-point     22
Estimated direct band gap   :   0.3556508225    
 at k-point     13

Charges :
 core                        :    68.00000000    
 valence                     :    14.00000000    
 interstitial                :    15.83698682    
 muffin-tins (core leakage)
  species :    1 (Pb)
   atom    1                 :    66.16301318     (   36.58231588    )
 total in muffin-tins        :    66.16301318    
 total calculated charge     :    45.41843095    
 total charge                :    82.00000000    
 error                       :    36.58156905    

Moments :
 interstitial                :  -0.2682459708E-24  0.1801741655E-23 -0.1108382361E-23
 muffin-tins
  species :    1 (Pb)
   atom    1                 :   0.2259806545E-22  0.7338755870E-22 -0.2248819921E-22
 total in muffin-tins        :   0.2259806545E-22  0.7338755870E-22 -0.2248819921E-22
 total moment                :   0.2232981948E-22  0.7518930035E-22 -0.2359658157E-22

RMS change in Kohn-Sham potential (target) :    2.564160155     (  0.1000000000E-05)
Absolute change in total energy (target)   :    147.3857226     (  0.1000000000E-03)

Time (CPU seconds) :        15.68

+--------------------+
| Loop number :    7 |
+--------------------+

Energies :
 Fermi                       :      35.3048138283    
 sum of eigenvalues          :     -5383.71883877    
 electron kinetic            :      28202.8682783    
 core electron kinetic       :      24647.1066978    
 Coulomb                     :     -49131.2763751    
 Coulomb potential           :     -32824.9808102    
 nuclear-nuclear             :     -12036.0705396    
 electron-nuclear            :     -41365.4308609    
 Hartree                     :      4270.22502538    
 Madelung                    :     -32718.7859700    
 xc potential                :     -761.606306922    
 xc effective B-field        :    -0.295423512934E-07
 external B-field            :      0.00000000000    
 exchange                    :     -562.676837557    
 correlation                 :     -10.5681208504    
 electron entropic           :    -0.620228222434E-04
 total energy                :     -21501.6531172    
 (external B-field energy excluded from total)

Density of states at Fermi energy :    21.97275876    
 (states/Hartree/unit cell)

Estimated indirect band gap :   0.1445901427E-01
 from k-point     11 to k-point     22
Estimated direct band gap   :   0.4105286333    
 at k-point     13

Charges :
 core                        :    68.00000000    
 valence                     :    14.00000000    
 interstitial                :    15.94683949    
 muffin-tins (core leakage)
  species :    1 (Pb)
   atom    1                 :    66.05316051     (   36.72747913    )
 total in muffin-tins        :    66.05316051    
 total calculated charge     :    45.27324506    
 total charge                :    82.00000000    
 error                       :    36.72675494    

Moments :
 interstitial                :  -0.3081512181E-23 -0.1123335130E-23  0.8672919857E-24
 muffin-tins
  species :    1 (Pb)
   atom    1                 :   0.1022122694E-22  0.2051384873E-22 -0.6877110031E-23
 total in muffin-tins        :   0.1022122694E-22  0.2051384873E-22 -0.6877110031E-23
 total moment                :   0.7139714763E-23  0.1939051360E-22 -0.6009818045E-23

RMS change in Kohn-Sham potential (target) :    1.117496850     (  0.1000000000E-05)
Absolute change in total energy (target)   :    105.4897264     (  0.1000000000E-03)

Time (CPU seconds) :        17.71

+--------------------+
| Loop number :    8 |
+--------------------+

Energies :
 Fermi                       :      35.9751928135    
 sum of eigenvalues          :     -5355.41104480    
 electron kinetic            :      28193.5686981    
 core electron kinetic       :      24627.6884608    
 Coulomb                     :     -49082.8444219    
 Coulomb potential           :     -32788.1797140    
 nuclear-nuclear             :     -12036.0705396    
 electron-nuclear            :     -41305.3680507    
 Hartree                     :      4258.59416836    
 Madelung                    :     -32688.7545649    
 xc potential                :     -760.800028926    
 xc effective B-field        :    -0.302793311904E-07
 external B-field            :      0.00000000000    
 exchange                    :     -562.073735745    
 correlation                 :     -10.5660005404    
 electron entropic           :    -0.620215609548E-04
 total energy                :     -21461.9155221    
 (external B-field energy excluded from total)

Density of states at Fermi energy :    21.97265659    
 (states/Hartree/unit cell)

Estimated indirect band gap :   0.1987294482E-01
 from k-point     11 to k-point     22
Estimated direct band gap   :   0.4416407607    
 at k-point     13

Charges :
 core                        :    68.00000000    
 valence                     :    14.00000000    
 interstitial                :    16.01253781    
 muffin-tins (core leakage)
  species :    1 (Pb)
   atom    1                 :    65.98746219     (   36.81307925    )
 total in muffin-tins        :    65.98746219    
 total calculated charge     :    45.18763199    
 total charge                :    82.00000000    
 error                       :    36.81236801    

Moments :
 interstitial                :  -0.8277261046E-24  0.9839762558E-25 -0.2536208552E-23
 muffin-tins
  species :    1 (Pb)
   atom    1                 :   0.1126279751E-22  0.5074940716E-22  0.5948439545E-22
 total in muffin-tins        :   0.1126279751E-22  0.5074940716E-22  0.5948439545E-22
 total moment                :   0.1043507140E-22  0.5084780478E-22  0.5694818690E-22

RMS change in Kohn-Sham potential (target) :   0.3786511638     (  0.1000000000E-05)
Absolute change in total energy (target)   :    66.11002671     (  0.1000000000E-03)

Time (CPU seconds) :        19.47

+--------------------+
| Loop number :    9 |
+--------------------+

Energies :
 Fermi                       :      36.3383570966    
 sum of eigenvalues          :     -5340.39403871    
 electron kinetic            :      28192.4401308    
 core electron kinetic       :      24621.8451533    
 Coulomb                     :     -49062.0445485    
 Coulomb potential           :     -32772.3985705    
 nuclear-nuclear             :     -12036.0705396    
 electron-nuclear            :     -41279.5494474    
 Hartree                     :      4253.57543845    
 Madelung                    :     -32675.8452633    
 xc potential                :     -760.435598966    
 xc effective B-field        :    -0.306514839548E-07
 external B-field            :      0.00000000000    
 exchange                    :     -561.801155515    
 correlation                 :     -10.5650212663    
 electron entropic           :    -0.620215536245E-04
 total energy                :     -21441.9706565    
 (external B-field energy excluded from total)

Density of states at Fermi energy :    21.97265612    
 (states/Hartree/unit cell)

Estimated indirect band gap :   0.2308022944E-01
 from k-point     11 to k-point     22
Estimated direct band gap   :   0.4568211556    
 at k-point     13

Charges :
 core                        :    68.00000000    
 valence                     :    14.00000000    
 interstitial                :    16.04640363    
 muffin-tins (core leakage)
  species :    1 (Pb)
   atom    1                 :    65.95359637     (   36.85702137    )
 total in muffin-tins        :    65.95359637    
 total calculated charge     :    45.14368444    
 total charge                :    82.00000000    
 error                       :    36.85631556    

Moments :
 interstitial                :  -0.1046884875E-24  0.3078717799E-23  0.3444434775E-23
 muffin-tins
  species :    1 (Pb)
   atom    1                 :   0.1332536134E-22 -0.2750084023E-22  0.5248864292E-22
 total in muffin-tins        :   0.1332536134E-22 -0.2750084023E-22  0.5248864292E-22
 total moment                :   0.1322067285E-22 -0.2442212243E-22  0.5593307770E-22

RMS change in Kohn-Sham potential (target) :   0.9346465156E-01 (  0.1000000000E-05)
Absolute change in total energy (target)   :    36.47237222     (  0.1000000000E-03)

Time (CPU seconds) :        21.22

+--------------------+
| Loop number :   10 |
+--------------------+

Energies :
 Fermi                       :      36.5163518807    
 sum of eigenvalues          :     -5333.12082355    
 electron kinetic            :      28194.5738270    
 core electron kinetic       :      24621.7058533    
 Coulomb                     :     -49055.3639742    
 Coulomb potential           :     -32767.3901165    
 nuclear-nuclear             :     -12036.0705396    
 electron-nuclear            :     -41271.1967527    
 Hartree                     :      4251.90331807    
 Madelung                    :     -32671.6689159    
 xc potential                :     -760.304533973    
 xc effective B-field        :    -0.308167675482E-07
 external B-field            :      0.00000000000    
 exchange                    :     -561.703134663    
 correlation                 :     -10.5646544164    
 electron entropic           :    -0.620215533043E-04
 total energy                :     -21433.0579983    
 (external B-field energy excluded from total)

Density of states at Fermi energy :    21.97265609    
 (states/Hartree/unit cell)

Estimated indirect band gap :   0.2469201216E-01
 from k-point     11 to k-point     22
Estimated direct band gap   :   0.4631957278    
 at k-point     13

Charges :
 core                        :    68.00000000    
 valence                     :    14.00000000    
 interstitial                :    16.06161743    
 muffin-tins (core leakage)
  species :    1 (Pb)
   atom    1                 :    65.93838257     (   36.87687437    )
 total in muffin-tins        :    65.93838257    
 total calculated charge     :    45.12382945    
 total charge                :    82.00000000    
 error                       :    36.87617055    

Moments :
 interstitial                :  -0.2758066583E-23  0.5530658149E-23 -0.6351609383E-24
 muffin-tins
  species :    1 (Pb)
   atom    1                 :  -0.1115906865E-22 -0.7183401246E-22  0.2050825254E-22
 total in muffin-tins        :  -0.1115906865E-22 -0.7183401246E-22  0.2050825254E-22
 total moment                :  -0.1391713523E-22 -0.6630335431E-22  0.1987309160E-22

RMS change in Kohn-Sham potential (target) :   0.3738195536E-01 (  0.1000000000E-05)
Absolute change in total energy (target)   :    18.03075131     (  0.1000000000E-03)

Time (CPU seconds) :        22.98

+--------------------+
| Loop number :   11 |
+--------------------+

Energies :
 Fermi                       :      36.5972910529    
 sum of eigenvalues          :     -5329.90366597    
 electron kinetic            :      28196.6984415    
 core electron kinetic       :      24622.6457782    
 Coulomb                     :     -49053.9810798    
 Coulomb potential           :     -32766.3341847    
 nuclear-nuclear             :     -12036.0705396    
 electron-nuclear            :     -41269.4868959    
 Hartree                     :      4251.57635559    
 Madelung                    :     -32670.8139875    
 xc potential                :     -760.267922786    
 xc effective B-field        :    -0.308788431624E-07
 external B-field            :      0.00000000000    
 exchange                    :     -561.675760617    
 correlation                 :     -10.5645429842    
 electron entropic           :    -0.620215532367E-04
 total energy                :     -21429.5230039    
 (external B-field energy excluded from total)

Density of states at Fermi energy :    21.97265607    
 (states/Hartree/unit cell)

Estimated indirect band gap :   0.2540228556E-01
 from k-point     11 to k-point     22
Estimated direct band gap   :   0.4655039453    
 at k-point     13

Charges :
 core                        :    68.00000000    
 valence                     :    14.00000000    
 interstitial                :    16.06800493    
 muffin-tins (core leakage)
  species :    1 (Pb)
   atom    1                 :    65.93199507     (   36.88574319    )
 total in muffin-tins        :    65.93199507    
 total calculated charge     :    45.11495989    
 total charge                :    82.00000000    
 error                       :    36.88504011    

Moments :
 interstitial                :  -0.3157289635E-23  0.5193262459E-23  0.3110107397E-23
 muffin-tins
  species :    1 (Pb)
   atom    1                 :  -0.3209578336E-23 -0.2029867978E-22 -0.4384796123E-24
 total in muffin-tins        :  -0.3209578336E-23 -0.2029867978E-22 -0.4384796123E-24
 total moment                :  -0.6366867971E-23 -0.1510541732E-22  0.2671627785E-23

RMS change in Kohn-Sham potential (target) :   0.2770928631E-01 (  0.1000000000E-05)
Absolute change in total energy (target)   :    8.042682177     (  0.1000000000E-03)

Time (CPU seconds) :        24.77

+--------------------+
| Loop number :   12 |
+--------------------+

Energies :
 Fermi                       :      36.6328156654    
 sum of eigenvalues          :     -5328.36229244    
 electron kinetic            :      28198.2121261    
 core electron kinetic       :      24623.5507713    
 Coulomb                     :     -49053.9923127    
 Coulomb potential           :     -32766.3131919    
 nuclear-nuclear             :     -12036.0705396    
 electron-nuclear            :     -41269.5303544    
 Hartree                     :      4251.60858124    
 Madelung                    :     -32670.8357168    
 xc potential                :     -760.261226597    
 xc effective B-field        :    -0.308968781289E-07
 external B-field            :      0.00000000000    
 exchange                    :     -561.670757546    
 correlation                 :     -10.5645177160    
 electron entropic           :    -0.620215532158E-04
 total energy                :     -21428.0155239    
 (external B-field energy excluded from total)

Density of states at Fermi energy :    21.97265607    
 (states/Hartree/unit cell)

Estimated indirect band gap :   0.2567179397E-01
 from k-point     11 to k-point     22
Estimated direct band gap   :   0.4662249161    
 at k-point     13

Charges :
 core                        :    68.00000000    
 valence                     :    14.00000000    
 interstitial                :    16.07044218    
 muffin-tins (core leakage)
  species :    1 (Pb)
   atom    1                 :    65.92955782     (   36.88938429    )
 total in muffin-tins        :    65.92955782    
 total calculated charge     :    45.11131846    
 total charge                :    82.00000000    
 error                       :    36.88868154    

Moments :
 interstitial                :  -0.8154476600E-24  0.7466691780E-24  0.2274688096E-23
 muffin-tins
  species :    1 (Pb)
   atom    1                 :  -0.1966749005E-22  0.1967827042E-22 -0.6169515929E-22
 total in muffin-tins        :  -0.1966749005E-22  0.1967827042E-22 -0.6169515929E-22
 total moment                :  -0.2048293771E-22  0.2042493959E-22 -0.5942047120E-22

RMS change in Kohn-Sham potential (target) :   0.1796142882E-01 (  0.1000000000E-05)
Absolute change in total energy (target)   :    3.518150573     (  0.1000000000E-03)

Time (CPU seconds) :        26.54

+--------------------+
| Loop number :   13 |
+--------------------+

Energies :
 Fermi                       :      36.6480291477    
 sum of eigenvalues          :     -5327.59038594    
 electron kinetic            :      28199.1545257    
 core electron kinetic       :      24624.1946846    
 Coulomb                     :     -49054.2373036    
 Coulomb potential           :     -32766.4827440    
 nuclear-nuclear             :     -12036.0705396    
 electron-nuclear            :     -41269.8507840    
 Hartree                     :      4251.68402001    
 Madelung                    :     -32670.9959316    
 xc potential                :     -760.262167583    
 xc effective B-field        :    -0.308992907641E-07
 external B-field            :      0.00000000000    
 exchange                    :     -561.671463987    
 correlation                 :     -10.5645167136    
 electron entropic           :    -0.620215532152E-04
 total energy                :     -21427.3188206    
 (external B-field energy excluded from total)

Density of states at Fermi energy :    21.97265607    
 (states/Hartree/unit cell)

Estimated indirect band gap :   0.2575601231E-01
 from k-point     11 to k-point     22
Estimated direct band gap   :   0.4664056641    
 at k-point     13

Charges :
 core                        :    68.00000000    
 valence                     :    14.00000000    
 interstitial                :    16.07124615    
 muffin-tins (core leakage)
  species :    1 (Pb)
   atom    1                 :    65.92875385     (   36.89068247    )
 total in muffin-tins        :    65.92875385    
 total calculated charge     :    45.11002007    
 total charge                :    82.00000000    
 error                       :    36.88997993    

Moments :
 interstitial                :  -0.3186906531E-25  0.5785119829E-23  0.2564562098E-23
 muffin-tins
  species :    1 (Pb)
   atom    1                 :   0.6766635197E-23 -0.4220836812E-22  0.2707496569E-22
 total in muffin-tins        :   0.6766635197E-23 -0.4220836812E-22  0.2707496569E-22
 total moment                :   0.6734766132E-23 -0.3642324829E-22  0.2963952779E-22

RMS change in Kohn-Sham potential (target) :   0.9989875072E-02 (  0.1000000000E-05)
Absolute change in total energy (target)   :    1.576240926     (  0.1000000000E-03)

Time (CPU seconds) :        28.31

+--------------------+
| Loop number :   14 |
+--------------------+

Energies :
 Fermi                       :      36.6544299361    
 sum of eigenvalues          :     -5327.19014936    
 electron kinetic            :      28199.6859331    
 core electron kinetic       :      24624.5865098    
 Coulomb                     :     -49054.4133665    
 Coulomb potential           :     -32766.6122220    
 nuclear-nuclear             :     -12036.0705396    
 electron-nuclear            :     -41270.0734319    
 Hartree                     :      4251.73060495    
 Madelung                    :     -32671.1072555    
 xc potential                :     -760.263860497    
 xc effective B-field        :    -0.308977117036E-07
 external B-field            :      0.00000000000    
 exchange                    :     -561.672731288    
 correlation                 :     -10.5645198057    
 electron entropic           :    -0.620215532025E-04
 total energy                :     -21426.9647465    
 (external B-field energy excluded from total)

Density of states at Fermi energy :    21.97265606    
 (states/Hartree/unit cell)

Estimated indirect band gap :   0.2577513685E-01
 from k-point     11 to k-point     22
Estimated direct band gap   :   0.4664317282    
 at k-point     13

Charges :
 core                        :    68.00000000    
 valence                     :    14.00000000    
 interstitial                :    16.07144582    
 muffin-tins (core leakage)
  species :    1 (Pb)
   atom    1                 :    65.92855418     (   36.89103603    )
 total in muffin-tins        :    65.92855418    
 total calculated charge     :    45.10966636    
 total charge                :    82.00000000    
 error                       :    36.89033364    

Moments :
 interstitial                :   0.2520627770E-23  0.2918827161E-23 -0.1023154040E-22
 muffin-tins
  species :    1 (Pb)
   atom    1                 :   0.9505390941E-23 -0.1361450044E-24 -0.9835730095E-23
 total in muffin-tins        :   0.9505390941E-23 -0.1361450044E-24 -0.9835730095E-23
 total moment                :   0.1202601871E-22  0.2782682156E-23 -0.2006727049E-22

RMS change in Kohn-Sham potential (target) :   0.4950826218E-02 (  0.1000000000E-05)
Absolute change in total energy (target)   :   0.7481343960     (  0.1000000000E-03)

Time (CPU seconds) :        30.10

+--------------------+
| Loop number :   15 |
+--------------------+

Energies :
 Fermi                       :      36.6570530622    
 sum of eigenvalues          :     -5326.98353955    
 electron kinetic            :      28199.9621740    
 core electron kinetic       :      24624.8002032    
 Coulomb                     :     -49054.5021818    
 Coulomb potential           :     -32766.6807761    
 nuclear-nuclear             :     -12036.0705396    
 electron-nuclear            :     -41270.1825084    
 Hartree                     :      4251.75086616    
 Madelung                    :     -32671.1617938    
 xc potential                :     -760.264937453    
 xc effective B-field        :    -0.308959755704E-07
 external B-field            :      0.00000000000    
 exchange                    :     -561.673537160    
 correlation                 :     -10.5645222073    
 electron entropic           :    -0.620215532064E-04
 total energy                :     -21426.7781292    
 (external B-field energy excluded from total)

Density of states at Fermi energy :    21.97265606    
 (states/Hartree/unit cell)

Estimated indirect band gap :   0.2577606895E-01
 from k-point     11 to k-point     22
Estimated direct band gap   :   0.4664246848    
 at k-point     13

Charges :
 core                        :    68.00000000    
 valence                     :    14.00000000    
 interstitial                :    16.07145690    
 muffin-tins (core leakage)
  species :    1 (Pb)
   atom    1                 :    65.92854310     (   36.89106810    )
 total in muffin-tins        :    65.92854310    
 total calculated charge     :    45.10963418    
 total charge                :    82.00000000    
 error                       :    36.89036582    

Moments :
 interstitial                :   0.6741449735E-24 -0.2298147844E-23  0.2161586349E-24
 muffin-tins
  species :    1 (Pb)
   atom    1                 :  -0.1869765070E-22  0.9596804727E-23 -0.5627929691E-22
 total in muffin-tins        :  -0.1869765070E-22  0.9596804727E-23 -0.5627929691E-22
 total moment                :  -0.1802350573E-22  0.7298656883E-23 -0.5606313828E-22

RMS change in Kohn-Sham potential (target) :   0.2225157743E-02 (  0.1000000000E-05)
Absolute change in total energy (target)   :   0.3736508683     (  0.1000000000E-03)

Time (CPU seconds) :        31.92

+--------------------+
| Loop number :   16 |
+--------------------+

Energies :
 Fermi                       :      36.6580787039    
 sum of eigenvalues          :     -5326.88233281    
 electron kinetic            :      28200.0942930    
 core electron kinetic       :      24624.9054496    
 Coulomb                     :     -49054.5394316    
 Coulomb potential           :     -32766.7111609    
 nuclear-nuclear             :     -12036.0705396    
 electron-nuclear            :     -41270.2266233    
 Hartree                     :      4251.75773118    
 Madelung                    :     -32671.1838512    
 xc potential                :     -760.265464887    
 xc effective B-field        :    -0.308948880117E-07
 external B-field            :      0.00000000000    
 exchange                    :     -561.673931740    
 correlation                 :     -10.5645235028    
 electron entropic           :    -0.620215532104E-04
 total energy                :     -21426.6836559    
 (external B-field energy excluded from total)

Density of states at Fermi energy :    21.97265607    
 (states/Hartree/unit cell)

Estimated indirect band gap :   0.2577391143E-01
 from k-point     11 to k-point     22
Estimated direct band gap   :   0.4664157039    
 at k-point     13

Charges :
 core                        :    68.00000000    
 valence                     :    14.00000000    
 interstitial                :    16.07142955    
 muffin-tins (core leakage)
  species :    1 (Pb)
   atom    1                 :    65.92857045     (   36.89102600    )
 total in muffin-tins        :    65.92857045    
 total calculated charge     :    45.10967623    
 total charge                :    82.00000000    
 error                       :    36.89032377    

Moments :
 interstitial                :  -0.7321031604E-24 -0.6412598510E-24  0.2936934732E-23
 muffin-tins
  species :    1 (Pb)
   atom    1                 :  -0.8568413157E-23  0.3695792429E-22  0.4070797634E-24
 total in muffin-tins        :  -0.8568413157E-23  0.3695792429E-22  0.4070797634E-24
 total moment                :  -0.9300516317E-23  0.3631666444E-22  0.3344014495E-23

RMS change in Kohn-Sham potential (target) :   0.9101473909E-03 (  0.1000000000E-05)
Absolute change in total energy (target)   :   0.1878859952     (  0.1000000000E-03)

Time (CPU seconds) :        33.72

+--------------------+
| Loop number :   17 |
+--------------------+

Energies :
 Fermi                       :      36.6584540762    
 sum of eigenvalues          :     -5326.83716147    
 electron kinetic            :      28200.1515694    
 core electron kinetic       :      24624.9517315    
 Coulomb                     :     -49054.5529639    
 Coulomb potential           :     -32766.7230481    
 nuclear-nuclear             :     -12036.0705396    
 electron-nuclear            :     -41270.2418007    
 Hartree                     :      4251.75937629    
 Madelung                    :     -32671.1914399    
 xc potential                :     -760.265682750    
 xc effective B-field        :    -0.308943753670E-07
 external B-field            :      0.00000000000    
 exchange                    :     -561.674094698    
 correlation                 :     -10.5645240739    
 electron entropic           :    -0.620215532019E-04
 total energy                :     -21426.6400753    
 (external B-field energy excluded from total)

Density of states at Fermi energy :    21.97265606    
 (states/Hartree/unit cell)

Estimated indirect band gap :   0.2577234706E-01
 from k-point     11 to k-point     22
Estimated direct band gap   :   0.4664106259    
 at k-point     13

Charges :
 core                        :    68.00000000    
 valence                     :    14.00000000    
 interstitial                :    16.07140767    
 muffin-tins (core leakage)
  species :    1 (Pb)
   atom    1                 :    65.92859233     (   36.89098866    )
 total in muffin-tins        :    65.92859233    
 total calculated charge     :    45.10971352    
 total charge                :    82.00000000    
 error                       :    36.89028648    

Moments :
 interstitial                :  -0.2938946286E-23  0.3150858699E-23  0.1030449515E-23
 muffin-tins
  species :    1 (Pb)
   atom    1                 :  -0.1362695707E-23  0.3476867595E-22 -0.2978895080E-22
 total in muffin-tins        :  -0.1362695707E-23  0.3476867595E-22 -0.2978895080E-22
 total moment                :  -0.4301641992E-23  0.3791953465E-22 -0.2875850129E-22

RMS change in Kohn-Sham potential (target) :   0.3420987317E-03 (  0.1000000000E-05)
Absolute change in total energy (target)   :   0.9055207402E-01 (  0.1000000000E-03)

Time (CPU seconds) :        35.49

+--------------------+
| Loop number :   18 |
+--------------------+

Energies :
 Fermi                       :      36.6585813409    
 sum of eigenvalues          :     -5326.81925492    
 electron kinetic            :      28200.1736451    
 core electron kinetic       :      24624.9693685    
 Coulomb                     :     -49054.5570804    
 Coulomb potential           :     -32766.7271447    
 nuclear-nuclear             :     -12036.0705396    
 electron-nuclear            :     -41270.2459369    
 Hartree                     :      4251.75939610    
 Madelung                    :     -32671.1935080    
 xc potential                :     -760.265755262    
 xc effective B-field        :    -0.308941887460E-07
 external B-field            :      0.00000000000    
 exchange                    :     -561.674148928    
 correlation                 :     -10.5645242723    
 electron entropic           :    -0.620215532105E-04
 total energy                :     -21426.6221705    
 (external B-field energy excluded from total)

Density of states at Fermi energy :    21.97265607    
 (states/Hartree/unit cell)

Estimated indirect band gap :   0.2577159118E-01
 from k-point     11 to k-point     22
Estimated direct band gap   :   0.4664087508    
 at k-point     13

Charges :
 core                        :    68.00000000    
 valence                     :    14.00000000    
 interstitial                :    16.07139694    
 muffin-tins (core leakage)
  species :    1 (Pb)
   atom    1                 :    65.92860306     (   36.89096925    )
 total in muffin-tins        :    65.92860306    
 total calculated charge     :    45.10973292    
 total charge                :    82.00000000    
 error                       :    36.89026708    

Moments :
 interstitial                :   0.1053030159E-23 -0.3286827625E-23 -0.1925292462E-23
 muffin-tins
  species :    1 (Pb)
   atom    1                 :   0.2300333501E-22  0.3138190600E-22  0.4077400490E-22
 total in muffin-tins        :   0.2300333501E-22  0.3138190600E-22  0.4077400490E-22
 total moment                :   0.2405636517E-22  0.2809507838E-22  0.3884871244E-22

RMS change in Kohn-Sham potential (target) :   0.1298006004E-03 (  0.1000000000E-05)
Absolute change in total energy (target)   :   0.4054284290E-01 (  0.1000000000E-03)

Time (CPU seconds) :        37.35

+--------------------+
| Loop number :   19 |
+--------------------+

Energies :
 Fermi                       :      36.6586209018    
 sum of eigenvalues          :     -5326.81290175    
 electron kinetic            :      28200.1809651    
 core electron kinetic       :      24624.9748833    
 Coulomb                     :     -49054.5577386    
 Coulomb potential           :     -32766.7280972    
 nuclear-nuclear             :     -12036.0705396    
 electron-nuclear            :     -41270.2463009    
 Hartree                     :      4251.75910188    
 Madelung                    :     -32671.1936900    
 xc potential                :     -760.265769650    
 xc effective B-field        :    -0.308941394634E-07
 external B-field            :     -0.00000000000    
 exchange                    :     -561.674159686    
 correlation                 :     -10.5645243152    
 electron entropic           :    -0.620215532077E-04
 total energy                :     -21426.6155195    
 (external B-field energy excluded from total)

Density of states at Fermi energy :    21.97265607    
 (states/Hartree/unit cell)

Estimated indirect band gap :   0.2577130804E-01
 from k-point     11 to k-point     22
Estimated direct band gap   :   0.4664083700    
 at k-point     13

Charges :
 core                        :    68.00000000    
 valence                     :    14.00000000    
 interstitial                :    16.07139318    
 muffin-tins (core leakage)
  species :    1 (Pb)
   atom    1                 :    65.92860682     (   36.89096201    )
 total in muffin-tins        :    65.92860682    
 total calculated charge     :    45.10974016    
 total charge                :    82.00000000    
 error                       :    36.89025984    

Moments :
 interstitial                :  -0.7463970282E-24  0.1668876241E-24  0.2611891254E-23
 muffin-tins
  species :    1 (Pb)
   atom    1                 :  -0.2032777428E-22 -0.4292238833E-22 -0.7945904433E-23
 total in muffin-tins        :  -0.2032777428E-22 -0.4292238833E-22 -0.7945904433E-23
 total moment                :  -0.2107417130E-22 -0.4275550071E-22 -0.5334013179E-23

RMS change in Kohn-Sham potential (target) :   0.5763636951E-04 (  0.1000000000E-05)
Absolute change in total energy (target)   :   0.1678668172E-01 (  0.1000000000E-03)

Time (CPU seconds) :        39.14

+--------------------+
| Loop number :   20 |
+--------------------+

Energies :
 Fermi                       :      36.6586318363    
 sum of eigenvalues          :     -5326.81085173    
 electron kinetic            :      28200.1829871    
 core electron kinetic       :      24624.9761588    
 Coulomb                     :     -49054.5574695    
 Coulomb potential           :     -32766.7280718    
 nuclear-nuclear             :     -12036.0705396    
 electron-nuclear            :     -41270.2457880    
 Hartree                     :      4251.75885812    
 Madelung                    :     -32671.1934336    
 xc potential                :     -760.265766976    
 xc effective B-field        :    -0.308941347757E-07
 external B-field            :      0.00000000000    
 exchange                    :     -561.674157683    
 correlation                 :     -10.5645243106    
 electron entropic           :    -0.620215531993E-04
 total energy                :     -21426.6132264    
 (external B-field energy excluded from total)

Density of states at Fermi energy :    21.97265606    
 (states/Hartree/unit cell)

Estimated indirect band gap :   0.2577122975E-01
 from k-point     11 to k-point     22
Estimated direct band gap   :   0.4664084556    
 at k-point     13

Charges :
 core                        :    68.00000000    
 valence                     :    14.00000000    
 interstitial                :    16.07139227    
 muffin-tins (core leakage)
  species :    1 (Pb)
   atom    1                 :    65.92860773     (   36.89095996    )
 total in muffin-tins        :    65.92860773    
 total calculated charge     :    45.10974221    
 total charge                :    82.00000000    
 error                       :    36.89025779    

Moments :
 interstitial                :   0.4661681192E-24  0.9613536709E-24 -0.1274280189E-23
 muffin-tins
  species :    1 (Pb)
   atom    1                 :   0.4708494514E-22 -0.1809554194E-22 -0.9504521469E-22
 total in muffin-tins        :   0.4708494514E-22 -0.1809554194E-22 -0.9504521469E-22
 total moment                :   0.4755111326E-22 -0.1713418827E-22 -0.9631949488E-22

RMS change in Kohn-Sham potential (target) :   0.2723211571E-04 (  0.1000000000E-05)
Absolute change in total energy (target)   :   0.6489785937E-02 (  0.1000000000E-03)

Time (CPU seconds) :        41.09

+--------------------+
| Loop number :   21 |
+--------------------+

Energies :
 Fermi                       :      36.6586352738    
 sum of eigenvalues          :     -5326.81018819    
 electron kinetic            :      28200.1834198    
 core electron kinetic       :      24624.9763258    
 Coulomb                     :     -49054.5570811    
 Coulomb potential           :     -32766.7278466    
 nuclear-nuclear             :     -12036.0705396    
 electron-nuclear            :     -41270.2452365    
 Hartree                     :      4251.75869497    
 Madelung                    :     -32671.1931578    
 xc potential                :     -760.265761347    
 xc effective B-field        :    -0.308941397962E-07
 external B-field            :      0.00000000000    
 exchange                    :     -561.674153472    
 correlation                 :     -10.5645242968    
 electron entropic           :    -0.620215532098E-04
 total energy                :     -21426.6124011    
 (external B-field energy excluded from total)

Density of states at Fermi energy :    21.97265607    
 (states/Hartree/unit cell)

Estimated indirect band gap :   0.2577121893E-01
 from k-point     11 to k-point     22
Estimated direct band gap   :   0.4664086286    
 at k-point     13

Charges :
 core                        :    68.00000000    
 valence                     :    14.00000000    
 interstitial                :    16.07139223    
 muffin-tins (core leakage)
  species :    1 (Pb)
   atom    1                 :    65.92860777     (   36.89095961    )
 total in muffin-tins        :    65.92860777    
 total calculated charge     :    45.10974255    
 total charge                :    82.00000000    
 error                       :    36.89025745    

Moments :
 interstitial                :  -0.2300730697E-23  0.5599552547E-23 -0.1209203681E-23
 muffin-tins
  species :    1 (Pb)
   atom    1                 :   0.1690098681E-23  0.3983335390E-22  0.1106872933E-24
 total in muffin-tins        :   0.1690098681E-23  0.3983335390E-22  0.1106872933E-24
 total moment                :  -0.6106320161E-24  0.4543290644E-22 -0.1098516388E-23

RMS change in Kohn-Sham potential (target) :   0.1139488292E-04 (  0.1000000000E-05)
Absolute change in total energy (target)   :   0.2447734983E-02 (  0.1000000000E-03)

Time (CPU seconds) :        43.14

+--------------------+
| Loop number :   22 |
+--------------------+

Energies :
 Fermi                       :      36.6586356307    
 sum of eigenvalues          :     -5326.80999318    
 electron kinetic            :      28200.1835163    
 core electron kinetic       :      24624.9763311    
 Coulomb                     :     -49054.5569255    
 Coulomb potential           :     -32766.7277505    
 nuclear-nuclear             :     -12036.0705396    
 electron-nuclear            :     -41270.2450214    
 Hartree                     :      4251.75863547    
 Madelung                    :     -32671.1930503    
 xc potential                :     -760.265758966    
 xc effective B-field        :    -0.308941433791E-07
 external B-field            :      0.00000000000    
 exchange                    :     -561.674151691    
 correlation                 :     -10.5645242909    
 electron entropic           :    -0.620215531999E-04
 total energy                :     -21426.6121472    
 (external B-field energy excluded from total)

Density of states at Fermi energy :    21.97265606    
 (states/Hartree/unit cell)

Estimated indirect band gap :   0.2577122189E-01
 from k-point     11 to k-point     22
Estimated direct band gap   :   0.4664087048    
 at k-point     13

Charges :
 core                        :    68.00000000    
 valence                     :    14.00000000    
 interstitial                :    16.07139225    
 muffin-tins (core leakage)
  species :    1 (Pb)
   atom    1                 :    65.92860775     (   36.89095953    )
 total in muffin-tins        :    65.92860775    
 total calculated charge     :    45.10974263    
 total charge                :    82.00000000    
 error                       :    36.89025737    

Moments :
 interstitial                :   0.1529455327E-23  0.2241988985E-23  0.2431105439E-23
 muffin-tins
  species :    1 (Pb)
   atom    1                 :  -0.3685406587E-23 -0.4000621396E-24 -0.1106683048E-22
 total in muffin-tins        :  -0.3685406587E-23 -0.4000621396E-24 -0.1106683048E-22
 total moment                :  -0.2155951259E-23  0.1841926845E-23 -0.8635725044E-23

RMS change in Kohn-Sham potential (target) :   0.4351994527E-05 (  0.1000000000E-05)
Absolute change in total energy (target)   :   0.8658408697E-03 (  0.1000000000E-03)

Time (CPU seconds) :        44.94

+--------------------+
| Loop number :   23 |
+--------------------+

Energies :
 Fermi                       :      36.6586352482    
 sum of eigenvalues          :     -5326.80994427    
 electron kinetic            :      28200.1835471    
 core electron kinetic       :      24624.9763299    
 Coulomb                     :     -49054.5568891    
 Coulomb potential           :     -32766.7277329    
 nuclear-nuclear             :     -12036.0705396    
 electron-nuclear            :     -41270.2449663    
 Hartree                     :      4251.75861671    
 Madelung                    :     -32671.1930227    
 xc potential                :     -760.265758435    
 xc effective B-field        :    -0.308941450962E-07
 external B-field            :      0.00000000000    
 exchange                    :     -561.674151293    
 correlation                 :     -10.5645242895    
 electron entropic           :    -0.620215532100E-04
 total energy                :     -21426.6120797    
 (external B-field energy excluded from total)

Density of states at Fermi energy :    21.97265607    
 (states/Hartree/unit cell)

Estimated indirect band gap :   0.2577122604E-01
 from k-point     11 to k-point     22
Estimated direct band gap   :   0.4664087262    
 at k-point     13

Charges :
 core                        :    68.00000000    
 valence                     :    14.00000000    
 interstitial                :    16.07139224    
 muffin-tins (core leakage)
  species :    1 (Pb)
   atom    1                 :    65.92860776     (   36.89095948    )
 total in muffin-tins        :    65.92860776    
 total calculated charge     :    45.10974269    
 total charge                :    82.00000000    
 error                       :    36.89025731    

Moments :
 interstitial                :   0.2003385669E-23 -0.2807292516E-23  0.3150230708E-23
 muffin-tins
  species :    1 (Pb)
   atom    1                 :  -0.1531948842E-22 -0.5225387951E-22  0.1594135272E-22
 total in muffin-tins        :  -0.1531948842E-22 -0.5225387951E-22  0.1594135272E-22
 total moment                :  -0.1331610275E-22 -0.5506117203E-22  0.1909158343E-22

RMS change in Kohn-Sham potential (target) :   0.1580999781E-05 (  0.1000000000E-05)
Absolute change in total energy (target)   :   0.2840013549E-03 (  0.1000000000E-03)

Time (CPU seconds) :        46.84

+--------------------+
| Loop number :   24 |
+--------------------+

Energies :
 Fermi                       :      36.6586349493    
 sum of eigenvalues          :     -5326.80993338    
 electron kinetic            :      28200.1835577    
 core electron kinetic       :      24624.9763298    
 Coulomb                     :     -49054.5568863    
 Coulomb potential           :     -32766.7277327    
 nuclear-nuclear             :     -12036.0705396    
 electron-nuclear            :     -41270.2449608    
 Hartree                     :      4251.75861404    
 Madelung                    :     -32671.1930200    
 xc potential                :     -760.265758387    
 xc effective B-field        :    -0.308941457879E-07
 external B-field            :     -0.00000000000    
 exchange                    :     -561.674151257    
 correlation                 :     -10.5645242894    
 electron entropic           :    -0.620215532053E-04
 total energy                :     -21426.6120661    
 (external B-field energy excluded from total)

Density of states at Fermi energy :    21.97265606    
 (states/Hartree/unit cell)

Estimated indirect band gap :   0.2577122875E-01
 from k-point     11 to k-point     22
Estimated direct band gap   :   0.4664087322    
 at k-point     13

Charges :
 core                        :    68.00000000    
 valence                     :    14.00000000    
 interstitial                :    16.07139223    
 muffin-tins (core leakage)
  species :    1 (Pb)
   atom    1                 :    65.92860777     (   36.89095945    )
 total in muffin-tins        :    65.92860777    
 total calculated charge     :    45.10974271    
 total charge                :    82.00000000    
 error                       :    36.89025729    

Moments :
 interstitial                :   0.6175159212E-24  0.2724820338E-24  0.2612185170E-23
 muffin-tins
  species :    1 (Pb)
   atom    1                 :  -0.1011023576E-22 -0.5694878609E-22 -0.5450373840E-22
 total in muffin-tins        :  -0.1011023576E-22 -0.5694878609E-22 -0.5450373840E-22
 total moment                :  -0.9492719839E-23 -0.5667630406E-22 -0.5189155323E-22

RMS change in Kohn-Sham potential (target) :   0.5528061841E-06 (  0.1000000000E-05)
Absolute change in total energy (target)   :   0.8454544150E-04 (  0.1000000000E-03)

Convergence targets achieved

Time (CPU seconds) :        48.60

+--------------------+
| Loop number :   25 |
+--------------------+

Energies :
 Fermi                       :      36.6586348254    
 sum of eigenvalues          :     -5326.80993074    
 electron kinetic            :      28200.1835617    
 core electron kinetic       :      24624.9763302    
 Coulomb                     :     -49054.5568869    
 Coulomb potential           :     -32766.7277340    
 nuclear-nuclear             :     -12036.0705396    
 electron-nuclear            :     -41270.2449608    
 Hartree                     :      4251.75861339    
 Madelung                    :     -32671.1930200    
 xc potential                :     -760.265758382    
 xc effective B-field        :    -0.308941461262E-07
 external B-field            :      0.00000000000    
 exchange                    :     -561.674151253    
 correlation                 :     -10.5645242894    
 electron entropic           :    -0.620215532020E-04
 total energy                :     -21426.6120629    
 (external B-field energy excluded from total)

Density of states at Fermi energy :    21.97265606    
 (states/Hartree/unit cell)

Estimated indirect band gap :   0.2577123110E-01
 from k-point     11 to k-point     22
Estimated direct band gap   :   0.4664087349    
 at k-point     13

Charges :
 core                        :    68.00000000    
 valence                     :    14.00000000    
 interstitial                :    16.07139223    
 muffin-tins (core leakage)
  species :    1 (Pb)
   atom    1                 :    65.92860777     (   36.89095944    )
 total in muffin-tins        :    65.92860777    
 total calculated charge     :    45.10974272    
 total charge                :    82.00000000    
 error                       :    36.89025728    

Moments :
 interstitial                :  -0.3132820187E-23 -0.2274230570E-23  0.9022802998E-23
 muffin-tins
  species :    1 (Pb)
   atom    1                 :   0.1539935091E-23  0.3365543080E-22 -0.7002918936E-22
 total in muffin-tins        :   0.1539935091E-23  0.3365543080E-22 -0.7002918936E-22
 total moment                :  -0.1592885096E-23  0.3138120023E-22 -0.6100638636E-22

+------------------------------+
| Self-consistent loop stopped |
+------------------------------+

Wrote STATE.OUT

Timings (CPU seconds) :
 initialisation                        :         3.05
 Hamiltonian and overlap matrix set up :         1.93
 first-variational eigenvalue equation :         1.31
 second-variational calculation        :        29.47
 charge density calculation            :        12.43
 potential calculation                 :         2.21
 total                                 :        50.40

+----------------------------+
| Elk version 4.0.15 stopped |
+----------------------------+
