+----------------------------+
| Elk version 4.0.15 started |
+----------------------------+

Date (YYYY-MM-DD) : 2019-01-25
Time (hh:mm:ss)   : 08:58:30

All units are atomic (Hartree, Bohr, etc.)

+-------------------------------------------------+
| Ground-state run starting from atomic densities |
+-------------------------------------------------+

Lattice vectors :
   0.000000000      0.5000000000      0.5000000000    
  0.5000000000       0.000000000      0.5000000000    
  0.5000000000      0.5000000000       0.000000000    

Reciprocal lattice vectors :
  -6.283185307       6.283185307       6.283185307    
   6.283185307      -6.283185307       6.283185307    
   6.283185307       6.283185307      -6.283185307    

Unit cell volume      :   0.2500000000    
Brillouin zone volume :    992.2008538    

Species :    1 (Pb)
 parameters loaded from : Pb.in
 name : lead
 nuclear charge    :   -82.00000000    
 electronic charge :    82.00000000    
 atomic mass :    377702.4940    
 muffin-tin radius :   0.3285533906    
 number of radial points in muffin-tin :    697
 number on inner part of muffin-tin    :    469
 atomic positions (lattice), magnetic fields (Cartesian) :
   1 :   0.00000000  0.00000000  0.00000000    0.00000000  0.00000000  0.00000000

Total number of atoms per unit cell :    1

Spin treatment :
 spin-polarised
 spin-orbit coupling
 global magnetic field (Cartesian) :    0.000000000       0.000000000       0.000000000    
 non-collinear magnetisation

Number of Bravais lattice symmetries :   48
Number of crystal symmetries         :   48
Crystal has inversion symmetry
Real symmetric eigensolver will be used

k-point grid :     10    10    10
k-point offset :    0.000000000       0.000000000       0.000000000    
k-point set is reduced with full crystal symmetry group
Total number of k-points :       47

Muffin-tin radius times maximum |G+k| :    8.000000000    
 using average radius
Maximum |G+k| for APW functions       :    24.34916281    
Maximum (1/2)|G+k|^2                  :    296.4408648    
Maximum |G| for potential and density :    48.69832662    
Constant for pseudocharge density :    4
Radial integration step length :    4

G-vector grid sizes :     12    12    12
Number of G-vectors :      531

Maximum angular momentum used for
 APW functions                      :    8
 H and O matrix elements outer loop :    7
 outer part of muffin-tin           :    7
 inner part of muffin-tin           :    3

Total nuclear charge    :   -82.00000000    
Total core charge       :    68.00000000    
Total valence charge    :    14.00000000    
Total excess charge     :    0.000000000    
Total electronic charge :    82.00000000    

Effective Wigner radius, r_s :   0.8995235040E-01

Number of empty states         :    8
Total number of valence states :   32
Total number of core states    :   68

Total number of local-orbitals :   15

Exchange-correlation functional :      3     0     0
 Perdew-Wang/Ceperley-Alder, Phys. Rev. B 45, 13244 (1992)
 Local density approximation (LDA)

Smearing type :    3
 Fermi-Dirac
Smearing width :   0.1000000000E-02
Effective electronic temperature (K) :    315.7750425    

Mixing type :    1
 Adaptive linear mixing

Density and potential initialised from atomic data

+------------------------------+
| Self-consistent loop started |
+------------------------------+

+--------------------+
| Loop number :    1 |
+--------------------+

Energies :
 Fermi                       :      24.3795434163    
 sum of eigenvalues          :     -5865.46673330    
 electron kinetic            :      28456.0551046    
 core electron kinetic       :      25280.4774870    
 Coulomb                     :     -50071.9317224    
 Coulomb potential           :     -33544.8219725    
 nuclear-nuclear             :     -12036.0705396    
 electron-nuclear            :     -42526.9003932    
 Hartree                     :      4491.03921033    
 Madelung                    :     -33299.5207362    
 xc potential                :     -776.699865372    
 xc effective B-field        :    -0.117846386128E-07
 external B-field            :      0.00000000000    
 exchange                    :     -573.967904187    
 correlation                 :     -10.6065150406    
 electron entropic           :    -0.712575500896E-04
 total energy                :     -22200.4511083    
 (external B-field energy excluded from total)

Density of states at Fermi energy :    24.30431148    
 (states/Hartree/unit cell)

Estimated indirect band gap :   0.1525751794E-02
 from k-point      9 to k-point     15
Estimated direct band gap   :   0.4921917837    
 at k-point     26

Charges :
 core                        :    68.00000000    
 valence                     :    14.00000000    
 interstitial                :    14.92492102    
 muffin-tins (core leakage)
  species :    1 (Pb)
   atom    1                 :    67.07507898     (   35.23148177    )
 total in muffin-tins        :    67.07507898    
 total calculated charge     :    46.76943960    
 total charge                :    82.00000000    
 error                       :    35.23056040    

Moments :
 interstitial                :   0.6386049204E-28 -0.4480505245E-28 -0.1460875914E-28
 muffin-tins
  species :    1 (Pb)
   atom    1                 :   0.1185043737E-21 -0.2533575413E-22 -0.5116237054E-22
 total in muffin-tins        :   0.1185043737E-21 -0.2533575413E-22 -0.5116237054E-22
 total moment                :   0.1185044376E-21 -0.2533579894E-22 -0.5116238515E-22

Time (CPU seconds) :         5.22

+--------------------+
| Loop number :    2 |
+--------------------+

Energies :
 Fermi                       :      26.0683772223    
 sum of eigenvalues          :     -5789.53546607    
 electron kinetic            :      28420.7028459    
 core electron kinetic       :      25152.8199790    
 Coulomb                     :     -49930.3306686    
 Coulomb potential           :     -33435.8188250    
 nuclear-nuclear             :     -12036.0705396    
 electron-nuclear            :     -42352.7014332    
 Hartree                     :      4458.44130409    
 Madelung                    :     -33212.4212561    
 xc potential                :     -774.419487024    
 xc effective B-field        :    -0.130026902767E-07
 external B-field            :      0.00000000000    
 exchange                    :     -572.261966177    
 correlation                 :     -10.6007819663    
 electron entropic           :    -0.714034205535E-04
 total energy                :     -22092.4906423    
 (external B-field energy excluded from total)

Density of states at Fermi energy :    24.26355669    
 (states/Hartree/unit cell)

Estimated indirect band gap :   0.1028528451E-02
 from k-point     26 to k-point     17
Estimated direct band gap   :   0.3605291294    
 at k-point     17

Charges :
 core                        :    68.00000000    
 valence                     :    14.00000000    
 interstitial                :    15.07361750    
 muffin-tins (core leakage)
  species :    1 (Pb)
   atom    1                 :    66.92638250     (   35.47283812    )
 total in muffin-tins        :    66.92638250    
 total calculated charge     :    46.52805688    
 total charge                :    82.00000000    
 error                       :    35.47194312    

Moments :
 interstitial                :  -0.2554858215E-24 -0.2454211585E-25  0.1565043638E-24
 muffin-tins
  species :    1 (Pb)
   atom    1                 :   0.3654701478E-22  0.2881071116E-22 -0.4030935537E-23
 total in muffin-tins        :   0.3654701478E-22  0.2881071116E-22 -0.4030935537E-23
 total moment                :   0.3629152896E-22  0.2878616904E-22 -0.3874431173E-23

RMS change in Kohn-Sham potential (target) :    14.82110512     (  0.1000000000E-05)
Absolute change in total energy (target)   :    107.9604661     (  0.1000000000E-03)

Time (CPU seconds) :         7.90

+--------------------+
| Loop number :    3 |
+--------------------+

Energies :
 Fermi                       :      28.2434555385    
 sum of eigenvalues          :     -5692.44088028    
 electron kinetic            :      28371.3020442    
 core electron kinetic       :      25009.8812181    
 Coulomb                     :     -49743.5047213    
 Coulomb potential           :     -33292.3209410    
 nuclear-nuclear             :     -12036.0705396    
 electron-nuclear            :     -42122.5474224    
 Hartree                     :      4415.11324070    
 Madelung                    :     -33097.3442508    
 xc potential                :     -771.421983525    
 xc effective B-field        :    -0.134641261831E-07
 external B-field            :      0.00000000000    
 exchange                    :     -570.019570253    
 correlation                 :     -10.5932200332    
 electron entropic           :    -0.560759437377E-04
 total energy                :     -21952.8155234    
 (external B-field energy excluded from total)

Density of states at Fermi energy :    18.95349198    
 (states/Hartree/unit cell)

Estimated indirect band gap :   0.1978161810E-02
 from k-point     17 to k-point     26
Estimated direct band gap   :   0.6064445438    
 at k-point     15

Charges :
 core                        :    68.00000000    
 valence                     :    14.00000000    
 interstitial                :    15.26934625    
 muffin-tins (core leakage)
  species :    1 (Pb)
   atom    1                 :    66.73065375     (   35.77690525    )
 total in muffin-tins        :    66.73065375    
 total calculated charge     :    46.22395194    
 total charge                :    82.00000000    
 error                       :    35.77604806    

Moments :
 interstitial                :   0.6806247791E-24  0.5159002659E-24  0.1689416346E-24
 muffin-tins
  species :    1 (Pb)
   atom    1                 :  -0.1155269649E-22  0.2261529714E-22 -0.6896275553E-22
 total in muffin-tins        :  -0.1155269649E-22  0.2261529714E-22 -0.6896275553E-22
 total moment                :  -0.1087207171E-22  0.2313119741E-22 -0.6879381389E-22

RMS change in Kohn-Sham potential (target) :    11.47355316     (  0.1000000000E-05)
Absolute change in total energy (target)   :    166.6652354     (  0.1000000000E-03)

Time (CPU seconds) :        10.75

+--------------------+
| Loop number :    4 |
+--------------------+

Energies :
 Fermi                       :      30.5529135235    
 sum of eigenvalues          :     -5591.16011271    
 electron kinetic            :      28315.6148424    
 core electron kinetic       :      24874.8965206    
 Coulomb                     :     -49542.7957823    
 Coulomb potential           :     -33138.5634960    
 nuclear-nuclear             :     -12036.0705396    
 electron-nuclear            :     -41874.8869895    
 Hartree                     :      4368.16174679    
 Madelung                    :     -32973.5140343    
 xc potential                :     -768.211459100    
 xc effective B-field        :    -0.150958560057E-07
 external B-field            :      0.00000000000    
 exchange                    :     -567.617846831    
 correlation                 :     -10.5850793298    
 electron entropic           :    -0.664587715619E-04
 total energy                :     -21805.3839326    
 (external B-field energy excluded from total)

Density of states at Fermi energy :    23.95833315    
 (states/Hartree/unit cell)

Estimated indirect band gap :   0.3633282938E-01
 from k-point     42 to k-point      7
Estimated direct band gap   :   0.5932039004    
 at k-point     26

Charges :
 core                        :    68.00000000    
 valence                     :    14.00000000    
 interstitial                :    15.48161136    
 muffin-tins (core leakage)
  species :    1 (Pb)
   atom    1                 :    66.51838864     (   36.09017870    )
 total in muffin-tins        :    66.51838864    
 total calculated charge     :    45.91063554    
 total charge                :    82.00000000    
 error                       :    36.08936446    

Moments :
 interstitial                :   0.1641470934E-23  0.3232223451E-23 -0.5137167745E-24
 muffin-tins
  species :    1 (Pb)
   atom    1                 :   0.1923121699E-22  0.3989876409E-22  0.4657680642E-22
 total in muffin-tins        :   0.1923121699E-22  0.3989876409E-22  0.4657680642E-22
 total moment                :   0.2087268792E-22  0.4313098754E-22  0.4606308964E-22

RMS change in Kohn-Sham potential (target) :    7.966926650     (  0.1000000000E-05)
Absolute change in total energy (target)   :    189.0978997     (  0.1000000000E-03)

Time (CPU seconds) :        13.61

+--------------------+
| Loop number :    5 |
+--------------------+

Energies :
 Fermi                       :      32.6371153422    
 sum of eigenvalues          :     -5500.86134879    
 electron kinetic            :      28263.9173037    
 core electron kinetic       :      24765.7069429    
 Coulomb                     :     -49360.8178998    
 Coulomb potential           :     -32999.4755164    
 nuclear-nuclear             :     -12036.0705396    
 electron-nuclear            :     -41650.0192040    
 Hartree                     :      4325.27184379    
 Madelung                    :     -32861.0801416    
 xc potential                :     -765.303136060    
 xc effective B-field        :    -0.141319084929E-07
 external B-field            :      0.00000000000    
 exchange                    :     -565.442228703    
 correlation                 :     -10.5776583738    
 electron entropic           :    -0.644452098605E-04
 total energy                :     -21672.9205476    
 (external B-field energy excluded from total)

Density of states at Fermi energy :    22.95843112    
 (states/Hartree/unit cell)

Estimated indirect band gap :   0.3194120583E-01
 from k-point      7 to k-point     33
Estimated direct band gap   :   0.5054693529    
 at k-point      7

Charges :
 core                        :    68.00000000    
 valence                     :    14.00000000    
 interstitial                :    15.67875321    
 muffin-tins (core leakage)
  species :    1 (Pb)
   atom    1                 :    66.32124679     (   36.36759820    )
 total in muffin-tins        :    66.32124679    
 total calculated charge     :    45.63316948    
 total charge                :    82.00000000    
 error                       :    36.36683052    

Moments :
 interstitial                :   0.2082531636E-23 -0.3102947909E-23 -0.4333846866E-24
 muffin-tins
  species :    1 (Pb)
   atom    1                 :   0.3383901820E-22 -0.1314152381E-22  0.6155396252E-23
 total in muffin-tins        :   0.3383901820E-22 -0.1314152381E-22  0.6155396252E-23
 total moment                :   0.3592154984E-22 -0.1624447172E-22  0.5722011566E-23

RMS change in Kohn-Sham potential (target) :    4.872952243     (  0.1000000000E-05)
Absolute change in total energy (target)   :    179.7378599     (  0.1000000000E-03)

Time (CPU seconds) :        17.02

+--------------------+
| Loop number :    6 |
+--------------------+

Energies :
 Fermi                       :      34.2252448551    
 sum of eigenvalues          :     -5430.87623676    
 electron kinetic            :      28225.1288904    
 core electron kinetic       :      24690.5168620    
 Coulomb                     :     -49221.1823494    
 Coulomb potential           :     -32892.9415248    
 nuclear-nuclear             :     -12036.0705396    
 electron-nuclear            :     -41477.2820947    
 Hartree                     :      4292.17028495    
 Madelung                    :     -32774.7115869    
 xc potential                :     -763.063602281    
 xc effective B-field        :    -0.150976991272E-07
 external B-field            :      0.00000000000    
 exchange                    :     -563.766941493    
 correlation                 :     -10.5719009845    
 electron entropic           :    -0.644441160245E-04
 total energy                :     -21570.3923659    
 (external B-field energy excluded from total)

Density of states at Fermi energy :    22.95838463    
 (states/Hartree/unit cell)

Estimated indirect band gap :   0.1434842248E-01
 from k-point     17 to k-point     33
Estimated direct band gap   :   0.5486751060    
 at k-point     27

Charges :
 core                        :    68.00000000    
 valence                     :    14.00000000    
 interstitial                :    15.83703710    
 muffin-tins (core leakage)
  species :    1 (Pb)
   atom    1                 :    66.16296290     (   36.58211163    )
 total in muffin-tins        :    66.16296290    
 total calculated charge     :    45.41862200    
 total charge                :    82.00000000    
 error                       :    36.58137800    

Moments :
 interstitial                :  -0.2544260021E-23  0.4822780290E-23  0.2053186082E-23
 muffin-tins
  species :    1 (Pb)
   atom    1                 :   0.2494027550E-22 -0.2299279749E-22 -0.4986419638E-22
 total in muffin-tins        :   0.2494027550E-22 -0.2299279749E-22 -0.4986419638E-22
 total moment                :   0.2239601548E-22 -0.1817001720E-22 -0.4781101030E-22

RMS change in Kohn-Sham potential (target) :    2.563351576     (  0.1000000000E-05)
Absolute change in total energy (target)   :    147.4626467     (  0.1000000000E-03)

Time (CPU seconds) :        19.86

+--------------------+
| Loop number :    7 |
+--------------------+

Energies :
 Fermi                       :      35.3226786017    
 sum of eigenvalues          :     -5383.39053605    
 electron kinetic            :      28202.2217385    
 core electron kinetic       :      24647.5053791    
 Coulomb                     :     -49130.6437469    
 Coulomb potential           :     -32824.0190301    
 nuclear-nuclear             :     -12036.0705396    
 electron-nuclear            :     -41365.1273846    
 Hartree                     :      4270.55417723    
 Madelung                    :     -32718.6342319    
 xc potential                :     -761.593244451    
 xc effective B-field        :    -0.175186810073E-07
 external B-field            :      0.00000000000    
 exchange                    :     -562.667065520    
 correlation                 :     -10.5680841302    
 electron entropic           :    -0.323747888240E-04
 total energy                :     -21501.6571904    
 (external B-field energy excluded from total)

Density of states at Fermi energy :    9.008545338    
 (states/Hartree/unit cell)

Estimated indirect band gap :   0.9592812559E-02
 from k-point     33 to k-point     17
Estimated direct band gap   :   0.5222571818    
 at k-point     27

Charges :
 core                        :    68.00000000    
 valence                     :    14.00000000    
 interstitial                :    15.94731006    
 muffin-tins (core leakage)
  species :    1 (Pb)
   atom    1                 :    66.05268994     (   36.72719969    )
 total in muffin-tins        :    66.05268994    
 total calculated charge     :    45.27351455    
 total charge                :    82.00000000    
 error                       :    36.72648545    

Moments :
 interstitial                :  -0.1679552467E-23 -0.4664413570E-23 -0.1246947741E-23
 muffin-tins
  species :    1 (Pb)
   atom    1                 :   0.2475959594E-22 -0.1311566698E-22  0.1022637268E-22
 total in muffin-tins        :   0.2475959594E-22 -0.1311566698E-22  0.1022637268E-22
 total moment                :   0.2308004347E-22 -0.1778008055E-22  0.8979424935E-23

RMS change in Kohn-Sham potential (target) :    1.115942193     (  0.1000000000E-05)
Absolute change in total energy (target)   :    105.6008372     (  0.1000000000E-03)

Time (CPU seconds) :        22.70

+--------------------+
| Loop number :    8 |
+--------------------+

Energies :
 Fermi                       :      35.9895605405    
 sum of eigenvalues          :     -5355.07436786    
 electron kinetic            :      28192.9865306    
 core electron kinetic       :      24628.1652470    
 Coulomb                     :     -49082.2816825    
 Coulomb potential           :     -32787.2729342    
 nuclear-nuclear             :     -12036.0705396    
 electron-nuclear            :     -41305.1493516    
 Hartree                     :      4258.93820869    
 Madelung                    :     -32688.6452154    
 xc potential                :     -760.787964249    
 xc effective B-field        :    -0.179460185323E-07
 external B-field            :      0.00000000000    
 exchange                    :     -562.064710284    
 correlation                 :     -10.5659661855    
 electron entropic           :    -0.320777074869E-04
 total energy                :     -21461.9258604    
 (external B-field energy excluded from total)

Density of states at Fermi energy :    8.958333200    
 (states/Hartree/unit cell)

Estimated indirect band gap :   0.2405660101E-01
 from k-point     33 to k-point     17
Estimated direct band gap   :   0.5066453028    
 at k-point     27

Charges :
 core                        :    68.00000000    
 valence                     :    14.00000000    
 interstitial                :    16.01297309    
 muffin-tins (core leakage)
  species :    1 (Pb)
   atom    1                 :    65.98702691     (   36.81268200    )
 total in muffin-tins        :    65.98702691    
 total calculated charge     :    45.18801913    
 total charge                :    82.00000000    
 error                       :    36.81198087    

Moments :
 interstitial                :  -0.2141747749E-23  0.1795476042E-23 -0.1016252043E-23
 muffin-tins
  species :    1 (Pb)
   atom    1                 :  -0.1847736701E-22  0.5354961750E-22  0.4751744883E-22
 total in muffin-tins        :  -0.1847736701E-22  0.5354961750E-22  0.4751744883E-22
 total moment                :  -0.2061911476E-22  0.5534509354E-22  0.4650119679E-22

RMS change in Kohn-Sham potential (target) :   0.3781647485     (  0.1000000000E-05)
Absolute change in total energy (target)   :    66.13153930     (  0.1000000000E-03)

Time (CPU seconds) :        25.54

+--------------------+
| Loop number :    9 |
+--------------------+

Energies :
 Fermi                       :      36.3514271072    
 sum of eigenvalues          :     -5340.04559186    
 electron kinetic            :      28191.9009112    
 core electron kinetic       :      24622.3663830    
 Coulomb                     :     -49061.5207110    
 Coulomb potential           :     -32771.5223968    
 nuclear-nuclear             :     -12036.0705396    
 electron-nuclear            :     -41279.3779460    
 Hartree                     :      4253.92777463    
 Madelung                    :     -32675.7595126    
 xc potential                :     -760.424106298    
 xc effective B-field        :    -0.181655986915E-07
 external B-field            :      0.00000000000    
 exchange                    :     -561.792558029    
 correlation                 :     -10.5649883019    
 electron entropic           :    -0.320777070463E-04
 total energy                :     -21441.9773782    
 (external B-field energy excluded from total)

Density of states at Fermi energy :    8.958333161    
 (states/Hartree/unit cell)

Estimated indirect band gap :   0.3129911410E-01
 from k-point     33 to k-point     17
Estimated direct band gap   :   0.4989918191    
 at k-point     27

Charges :
 core                        :    68.00000000    
 valence                     :    14.00000000    
 interstitial                :    16.04681453    
 muffin-tins (core leakage)
  species :    1 (Pb)
   atom    1                 :    65.95318547     (   36.85655992    )
 total in muffin-tins        :    65.95318547    
 total calculated charge     :    45.14413571    
 total charge                :    82.00000000    
 error                       :    36.85586429    

Moments :
 interstitial                :  -0.3149847163E-23 -0.5395780397E-23 -0.2118541141E-23
 muffin-tins
  species :    1 (Pb)
   atom    1                 :   0.3172306210E-22 -0.6722090823E-22 -0.9536254523E-23
 total in muffin-tins        :   0.3172306210E-22 -0.6722090823E-22 -0.9536254523E-23
 total moment                :   0.2857321493E-22 -0.7261668863E-22 -0.1165479566E-22

RMS change in Kohn-Sham potential (target) :   0.9352963961E-01 (  0.1000000000E-05)
Absolute change in total energy (target)   :    36.48136706     (  0.1000000000E-03)

Time (CPU seconds) :        28.38

+--------------------+
| Loop number :   10 |
+--------------------+

Energies :
 Fermi                       :      36.5291427981    
 sum of eigenvalues          :     -5332.76718098    
 electron kinetic            :      28194.0516907    
 core electron kinetic       :      24622.2406519    
 Coulomb                     :     -49054.8543691    
 Coulomb potential           :     -32766.5256199    
 nuclear-nuclear             :     -12036.0705396    
 electron-nuclear            :     -41271.0420391    
 Hartree                     :      4252.25820960    
 Madelung                    :     -32671.5915591    
 xc potential                :     -760.293251800    
 xc effective B-field        :    -0.182655563308E-07
 external B-field            :      0.00000000000    
 exchange                    :     -561.694694655    
 correlation                 :     -10.5646219625    
 electron entropic           :    -0.320777070198E-04
 total energy                :     -21433.0620270    
 (external B-field energy excluded from total)

Density of states at Fermi energy :    8.958333156    
 (states/Hartree/unit cell)

Estimated indirect band gap :   0.3434362462E-01
 from k-point     33 to k-point     17
Estimated direct band gap   :   0.4958588071    
 at k-point     27

Charges :
 core                        :    68.00000000    
 valence                     :    14.00000000    
 interstitial                :    16.06202543    
 muffin-tins (core leakage)
  species :    1 (Pb)
   atom    1                 :    65.93797457     (   36.87640730    )
 total in muffin-tins        :    65.93797457    
 total calculated charge     :    45.12428629    
 total charge                :    82.00000000    
 error                       :    36.87571371    

Moments :
 interstitial                :  -0.1276195769E-23  0.5656900573E-23  0.1387815417E-23
 muffin-tins
  species :    1 (Pb)
   atom    1                 :   0.7011941579E-22  0.1271168972E-23  0.7127131848E-22
 total in muffin-tins        :   0.7011941579E-22  0.1271168972E-23  0.7127131848E-22
 total moment                :   0.6884322002E-22  0.6928069545E-23  0.7265913389E-22

RMS change in Kohn-Sham potential (target) :   0.3755908191E-01 (  0.1000000000E-05)
Absolute change in total energy (target)   :    18.03569289     (  0.1000000000E-03)

Time (CPU seconds) :        31.23

+--------------------+
| Loop number :   11 |
+--------------------+

Energies :
 Fermi                       :      36.6101322922    
 sum of eigenvalues          :     -5329.54362923    
 electron kinetic            :      28196.1871320    
 core electron kinetic       :      24623.1892545    
 Coulomb                     :     -49053.4780789    
 Coulomb potential           :     -32765.4740170    
 nuclear-nuclear             :     -12036.0705396    
 electron-nuclear            :     -41269.3410615    
 Hartree                     :      4251.93352225    
 Madelung                    :     -32670.7410703    
 xc potential                :     -760.256744189    
 xc effective B-field        :    -0.183041236508E-07
 external B-field            :      0.00000000000    
 exchange                    :     -561.667398084    
 correlation                 :     -10.5645107921    
 electron entropic           :    -0.320777070306E-04
 total energy                :     -21429.5228878    
 (external B-field energy excluded from total)

Density of states at Fermi energy :    8.958333159    
 (states/Hartree/unit cell)

Estimated indirect band gap :   0.3542094534E-01
 from k-point     33 to k-point     17
Estimated direct band gap   :   0.4947994344    
 at k-point     27

Charges :
 core                        :    68.00000000    
 valence                     :    14.00000000    
 interstitial                :    16.06840938    
 muffin-tins (core leakage)
  species :    1 (Pb)
   atom    1                 :    65.93159062     (   36.88527149    )
 total in muffin-tins        :    65.93159062    
 total calculated charge     :    45.11542134    
 total charge                :    82.00000000    
 error                       :    36.88457866    

Moments :
 interstitial                :  -0.1828418873E-24  0.2025547785E-25 -0.1450489645E-23
 muffin-tins
  species :    1 (Pb)
   atom    1                 :  -0.5811326620E-22  0.3755728301E-22 -0.8298945188E-22
 total in muffin-tins        :  -0.5811326620E-22  0.3755728301E-22 -0.8298945188E-22
 total moment                :  -0.5829610809E-22  0.3757753849E-22 -0.8443994152E-22

RMS change in Kohn-Sham potential (target) :   0.2780015033E-01 (  0.1000000000E-05)
Absolute change in total energy (target)   :    8.048062459     (  0.1000000000E-03)

Time (CPU seconds) :        34.10

+--------------------+
| Loop number :   12 |
+--------------------+

Energies :
 Fermi                       :      36.6457573209    
 sum of eigenvalues          :     -5327.99633053    
 electron kinetic            :      28197.7081806    
 core electron kinetic       :      24624.1001830    
 Coulomb                     :     -49053.4922704    
 Coulomb potential           :     -32765.4544137    
 nuclear-nuclear             :     -12036.0705396    
 electron-nuclear            :     -41269.3890479    
 Hartree                     :      4251.96731711    
 Madelung                    :     -32670.7650635    
 xc potential                :     -760.250097444    
 xc effective B-field        :    -0.183157962999E-07
 external B-field            :      0.00000000000    
 exchange                    :     -561.662431990    
 correlation                 :     -10.5644856536    
 electron entropic           :    -0.320777070344E-04
 total energy                :     -21428.0110395    
 (external B-field energy excluded from total)

Density of states at Fermi energy :    8.958333158    
 (states/Hartree/unit cell)

Estimated indirect band gap :   0.3574250270E-01
 from k-point     33 to k-point     17
Estimated direct band gap   :   0.4944996472    
 at k-point     27

Charges :
 core                        :    68.00000000    
 valence                     :    14.00000000    
 interstitial                :    16.07084378    
 muffin-tins (core leakage)
  species :    1 (Pb)
   atom    1                 :    65.92915622     (   36.88890855    )
 total in muffin-tins        :    65.92915622    
 total calculated charge     :    45.11178392    
 total charge                :    82.00000000    
 error                       :    36.88821608    

Moments :
 interstitial                :  -0.1400083232E-23 -0.1694325527E-23 -0.6249439373E-24
 muffin-tins
  species :    1 (Pb)
   atom    1                 :  -0.7664149286E-23  0.5857136560E-23 -0.8902805861E-22
 total in muffin-tins        :  -0.7664149286E-23  0.5857136560E-23 -0.8902805861E-22
 total moment                :  -0.9064232518E-23  0.4162811033E-23 -0.8965300254E-22

RMS change in Kohn-Sham potential (target) :   0.1800903990E-01 (  0.1000000000E-05)
Absolute change in total energy (target)   :    3.523863940     (  0.1000000000E-03)

Time (CPU seconds) :        36.92

+--------------------+
| Loop number :   13 |
+--------------------+

Energies :
 Fermi                       :      36.6610459506    
 sum of eigenvalues          :     -5327.21963829    
 electron kinetic            :      28198.6557065    
 core electron kinetic       :      24624.7481834    
 Coulomb                     :     -49053.7385362    
 Coulomb potential           :     -32765.6242822    
 nuclear-nuclear             :     -12036.0705396    
 electron-nuclear            :     -41269.7117111    
 Hartree                     :      4252.04371446    
 Madelung                    :     -32670.9263951    
 xc potential                :     -760.251062556    
 xc effective B-field        :    -0.183176799571E-07
 external B-field            :      0.00000000000    
 exchange                    :     -561.663156468    
 correlation                 :     -10.5644847180    
 electron entropic           :    -0.320777070428E-04
 total energy                :     -21427.3105030    
 (external B-field energy excluded from total)

Density of states at Fermi energy :    8.958333158    
 (states/Hartree/unit cell)

Estimated indirect band gap :   0.3581387901E-01
 from k-point     33 to k-point     17
Estimated direct band gap   :   0.4944264004    
 at k-point     27

Charges :
 core                        :    68.00000000    
 valence                     :    14.00000000    
 interstitial                :    16.07164550    
 muffin-tins (core leakage)
  species :    1 (Pb)
   atom    1                 :    65.92835450     (   36.89020322    )
 total in muffin-tins        :    65.92835450    
 total calculated charge     :    45.11048904    
 total charge                :    82.00000000    
 error                       :    36.88951096    

Moments :
 interstitial                :   0.3758645614E-24  0.8450279077E-23  0.9429865104E-24
 muffin-tins
  species :    1 (Pb)
   atom    1                 :  -0.5372416203E-24  0.1460076989E-22  0.1192605096E-22
 total in muffin-tins        :  -0.5372416203E-24  0.1460076989E-22  0.1192605096E-22
 total moment                :  -0.1613770589E-24  0.2305104897E-22  0.1286903747E-22

RMS change in Kohn-Sham potential (target) :   0.1002081610E-01 (  0.1000000000E-05)
Absolute change in total energy (target)   :    1.581502445     (  0.1000000000E-03)

Time (CPU seconds) :        39.77

+--------------------+
| Loop number :   14 |
+--------------------+

Energies :
 Fermi                       :      36.6674917367    
 sum of eigenvalues          :     -5326.81595930    
 electron kinetic            :      28199.1905694    
 core electron kinetic       :      24625.1427334    
 Coulomb                     :     -49053.9151208    
 Coulomb potential           :     -32765.7537612    
 nuclear-nuclear             :     -12036.0705396    
 electron-nuclear            :     -41269.9354013    
 Hartree                     :      4252.09082009    
 Madelung                    :     -32671.0382402    
 xc potential                :     -760.252767571    
 xc effective B-field        :    -0.183169385383E-07
 external B-field            :      0.00000000000    
 exchange                    :     -561.664432814    
 correlation                 :     -10.5644878461    
 electron entropic           :    -0.320777070623E-04
 total energy                :     -21426.9535041    
 (external B-field energy excluded from total)

Density of states at Fermi energy :    8.958333164    
 (states/Hartree/unit cell)

Estimated indirect band gap :   0.3581859271E-01
 from k-point     33 to k-point     17
Estimated direct band gap   :   0.4944102169    
 at k-point     27

Charges :
 core                        :    68.00000000    
 valence                     :    14.00000000    
 interstitial                :    16.07184347    
 muffin-tins (core leakage)
  species :    1 (Pb)
   atom    1                 :    65.92815653     (   36.89055396    )
 total in muffin-tins        :    65.92815653    
 total calculated charge     :    45.11013815    
 total charge                :    82.00000000    
 error                       :    36.88986185    

Moments :
 interstitial                :  -0.1874168926E-23  0.2914071733E-23 -0.3194383601E-24
 muffin-tins
  species :    1 (Pb)
   atom    1                 :  -0.8482653273E-22 -0.2151150464E-22  0.1453614232E-21
 total in muffin-tins        :  -0.8482653273E-22 -0.2151150464E-22  0.1453614232E-21
 total moment                :  -0.8670070166E-22 -0.1859743291E-22  0.1450419848E-21

RMS change in Kohn-Sham potential (target) :   0.4973023672E-02 (  0.1000000000E-05)
Absolute change in total energy (target)   :   0.7523745235     (  0.1000000000E-03)

Time (CPU seconds) :        42.61

+--------------------+
| Loop number :   15 |
+--------------------+

Energies :
 Fermi                       :      36.6701389982    
 sum of eigenvalues          :     -5326.60714917    
 electron kinetic            :      28199.4689695    
 core electron kinetic       :      24625.3581061    
 Coulomb                     :     -49054.0041358    
 Coulomb potential           :     -32765.8222679    
 nuclear-nuclear             :     -12036.0705396    
 electron-nuclear            :     -41270.0449246    
 Hartree                     :      4252.11132834    
 Madelung                    :     -32671.0930019    
 xc potential                :     -760.253850767    
 xc effective B-field        :    -0.183159850431E-07
 external B-field            :      0.00000000000    
 exchange                    :     -561.665243348    
 correlation                 :     -10.5644902676    
 electron entropic           :    -0.320777070704E-04
 total energy                :     -21426.7649320    
 (external B-field energy excluded from total)

Density of states at Fermi energy :    8.958333166    
 (states/Hartree/unit cell)

Estimated indirect band gap :   0.3581171494E-01
 from k-point     33 to k-point     17
Estimated direct band gap   :   0.4944072961    
 at k-point     27

Charges :
 core                        :    68.00000000    
 valence                     :    14.00000000    
 interstitial                :    16.07185337    
 muffin-tins (core leakage)
  species :    1 (Pb)
   atom    1                 :    65.92814663     (   36.89058399    )
 total in muffin-tins        :    65.92814663    
 total calculated charge     :    45.11010801    
 total charge                :    82.00000000    
 error                       :    36.88989199    

Moments :
 interstitial                :  -0.5034443063E-23 -0.5045935448E-23  0.8328830308E-24
 muffin-tins
  species :    1 (Pb)
   atom    1                 :   0.6033568845E-23 -0.1121204469E-22  0.7769575222E-22
 total in muffin-tins        :   0.6033568845E-23 -0.1121204469E-22  0.7769575222E-22
 total moment                :   0.9991257822E-24 -0.1625798014E-22  0.7852863525E-22

RMS change in Kohn-Sham potential (target) :   0.2240236580E-02 (  0.1000000000E-05)
Absolute change in total energy (target)   :   0.3766657460     (  0.1000000000E-03)

Time (CPU seconds) :        45.72

+--------------------+
| Loop number :   16 |
+--------------------+

Energies :
 Fermi                       :      36.6711766054    
 sum of eigenvalues          :     -5326.50469354    
 electron kinetic            :      28199.6023036    
 core electron kinetic       :      24625.4643020    
 Coulomb                     :     -49054.0414418    
 Coulomb potential           :     -32765.8526160    
 nuclear-nuclear             :     -12036.0705396    
 electron-nuclear            :     -41270.0891883    
 Hartree                     :      4252.11828616    
 Madelung                    :     -32671.1151337    
 xc potential                :     -760.254381118    
 xc effective B-field        :    -0.183153683688E-07
 external B-field            :     -0.00000000000    
 exchange                    :     -561.665640107    
 correlation                 :     -10.5644915732    
 electron entropic           :    -0.320777070635E-04
 total energy                :     -21426.6693019    
 (external B-field energy excluded from total)

Density of states at Fermi energy :    8.958333162    
 (states/Hartree/unit cell)

Estimated indirect band gap :   0.3580603817E-01
 from k-point     33 to k-point     17
Estimated direct band gap   :   0.4944075392    
 at k-point     27

Charges :
 core                        :    68.00000000    
 valence                     :    14.00000000    
 interstitial                :    16.07182531    
 muffin-tins (core leakage)
  species :    1 (Pb)
   atom    1                 :    65.92817469     (   36.89054060    )
 total in muffin-tins        :    65.92817469    
 total calculated charge     :    45.11015133    
 total charge                :    82.00000000    
 error                       :    36.88984867    

Moments :
 interstitial                :  -0.4838097741E-23  0.2517537406E-23 -0.1884890908E-23
 muffin-tins
  species :    1 (Pb)
   atom    1                 :  -0.1330360291E-22 -0.2204863263E-22 -0.7710713336E-22
 total in muffin-tins        :  -0.1330360291E-22 -0.2204863263E-22 -0.7710713336E-22
 total moment                :  -0.1814170065E-22 -0.1953109522E-22 -0.7899202427E-22

RMS change in Kohn-Sham potential (target) :   0.9192541183E-03 (  0.1000000000E-05)
Absolute change in total energy (target)   :   0.1897965308     (  0.1000000000E-03)

Time (CPU seconds) :        49.41

+--------------------+
| Loop number :   17 |
+--------------------+

Energies :
 Fermi                       :      36.6715572528    
 sum of eigenvalues          :     -5326.45892103    
 electron kinetic            :      28199.6602152    
 core electron kinetic       :      24625.5110672    
 Coulomb                     :     -49054.0550261    
 Coulomb potential           :     -32765.8645355    
 nuclear-nuclear             :     -12036.0705396    
 electron-nuclear            :     -41270.1044374    
 Hartree                     :      4252.11995096    
 Madelung                    :     -32671.1227583    
 xc potential                :     -760.254600647    
 xc effective B-field        :    -0.183150751274E-07
 external B-field            :      0.00000000000    
 exchange                    :     -561.665804309    
 correlation                 :     -10.5644921496    
 electron entropic           :    -0.320777070724E-04
 total energy                :     -21426.6251394    
 (external B-field energy excluded from total)

Density of states at Fermi energy :    8.958333165    
 (states/Hartree/unit cell)

Estimated indirect band gap :   0.3580310907E-01
 from k-point     33 to k-point     17
Estimated direct band gap   :   0.4944079920    
 at k-point     27

Charges :
 core                        :    68.00000000    
 valence                     :    14.00000000    
 interstitial                :    16.07180302    
 muffin-tins (core leakage)
  species :    1 (Pb)
   atom    1                 :    65.92819698     (   36.89050255    )
 total in muffin-tins        :    65.92819698    
 total calculated charge     :    45.11018934    
 total charge                :    82.00000000    
 error                       :    36.88981066    

Moments :
 interstitial                :   0.5903119803E-24  0.1024935934E-23 -0.1048896189E-23
 muffin-tins
  species :    1 (Pb)
   atom    1                 :  -0.5065134918E-22  0.2159963181E-22  0.7120301683E-22
 total in muffin-tins        :  -0.5065134918E-22  0.2159963181E-22  0.7120301683E-22
 total moment                :  -0.5006103720E-22  0.2262456774E-22  0.7015412064E-22

RMS change in Kohn-Sham potential (target) :   0.3472847489E-03 (  0.1000000000E-05)
Absolute change in total energy (target)   :   0.9161159682E-01 (  0.1000000000E-03)

Time (CPU seconds) :        52.22

+--------------------+
| Loop number :   18 |
+--------------------+

Energies :
 Fermi                       :      36.6716865150    
 sum of eigenvalues          :     -5326.44074735    
 electron kinetic            :      28199.6825543    
 core electron kinetic       :      24625.5288820    
 Coulomb                     :     -49054.0591323    
 Coulomb potential           :     -32765.8686283    
 nuclear-nuclear             :     -12036.0705396    
 electron-nuclear            :     -41270.1085572    
 Hartree                     :      4252.11996445    
 Madelung                    :     -32671.1248182    
 xc potential                :     -760.254673373    
 xc effective B-field        :    -0.183149682894E-07
 external B-field            :     -0.00000000000    
 exchange                    :     -561.665858699    
 correlation                 :     -10.5644923490    
 electron entropic           :    -0.320777070789E-04
 total energy                :     -21426.6069611    
 (external B-field energy excluded from total)

Density of states at Fermi energy :    8.958333168    
 (states/Hartree/unit cell)

Estimated indirect band gap :   0.3580204350E-01
 from k-point     33 to k-point     17
Estimated direct band gap   :   0.4944079083    
 at k-point     27

Charges :
 core                        :    68.00000000    
 valence                     :    14.00000000    
 interstitial                :    16.07179213    
 muffin-tins (core leakage)
  species :    1 (Pb)
   atom    1                 :    65.92820787     (   36.89048283    )
 total in muffin-tins        :    65.92820787    
 total calculated charge     :    45.11020905    
 total charge                :    82.00000000    
 error                       :    36.88979095    

Moments :
 interstitial                :  -0.2906757977E-24  0.3418576469E-23 -0.2390441460E-24
 muffin-tins
  species :    1 (Pb)
   atom    1                 :  -0.6265571871E-22 -0.3815819385E-22 -0.1518383273E-22
 total in muffin-tins        :  -0.6265571871E-22 -0.3815819385E-22 -0.1518383273E-22
 total moment                :  -0.6294639450E-22 -0.3473961738E-22 -0.1542287687E-22

RMS change in Kohn-Sham potential (target) :   0.1332751975E-03 (  0.1000000000E-05)
Absolute change in total energy (target)   :   0.4108121950E-01 (  0.1000000000E-03)

Time (CPU seconds) :        55.06

+--------------------+
| Loop number :   19 |
+--------------------+

Energies :
 Fermi                       :      36.6717266360    
 sum of eigenvalues          :     -5326.43428275    
 electron kinetic            :      28199.6899647    
 core electron kinetic       :      24625.5344432    
 Coulomb                     :     -49054.0597608    
 Coulomb potential           :     -32765.8695600    
 nuclear-nuclear             :     -12036.0705396    
 electron-nuclear            :     -41270.1088826    
 Hartree                     :      4252.11966131    
 Madelung                    :     -32671.1249809    
 xc potential                :     -760.254687517    
 xc effective B-field        :    -0.183149400972E-07
 external B-field            :      0.00000000000    
 exchange                    :     -561.665869273    
 correlation                 :     -10.5644923916    
 electron entropic           :    -0.320777070687E-04
 total energy                :     -21426.6001898    
 (external B-field energy excluded from total)

Density of states at Fermi energy :    8.958333164    
 (states/Hartree/unit cell)

Estimated indirect band gap :   0.3580180642E-01
 from k-point     33 to k-point     17
Estimated direct band gap   :   0.4944076307    
 at k-point     27

Charges :
 core                        :    68.00000000    
 valence                     :    14.00000000    
 interstitial                :    16.07178832    
 muffin-tins (core leakage)
  species :    1 (Pb)
   atom    1                 :    65.92821168     (   36.89047548    )
 total in muffin-tins        :    65.92821168    
 total calculated charge     :    45.11021638    
 total charge                :    82.00000000    
 error                       :    36.88978362    

Moments :
 interstitial                :  -0.1017119594E-23  0.9409939057E-23  0.1246489911E-25
 muffin-tins
  species :    1 (Pb)
   atom    1                 :  -0.2128573378E-23 -0.5038527693E-23 -0.1451645103E-22
 total in muffin-tins        :  -0.2128573378E-23 -0.5038527693E-23 -0.1451645103E-22
 total moment                :  -0.3145692972E-23  0.4371411364E-23 -0.1450398613E-22

RMS change in Kohn-Sham potential (target) :   0.5974808727E-04 (  0.1000000000E-05)
Absolute change in total energy (target)   :   0.1704157460E-01 (  0.1000000000E-03)

Time (CPU seconds) :        57.89

+--------------------+
| Loop number :   20 |
+--------------------+

Energies :
 Fermi                       :      36.6717376678    
 sum of eigenvalues          :     -5326.43218928    
 electron kinetic            :      28199.6920103    
 core electron kinetic       :      24625.5357206    
 Coulomb                     :     -49054.0594653    
 Coulomb potential           :     -32765.8695150    
 nuclear-nuclear             :     -12036.0705396    
 electron-nuclear            :     -41270.1083366    
 Hartree                     :      4252.11941080    
 Madelung                    :     -32671.1247079    
 xc potential                :     -760.254684549    
 xc effective B-field        :    -0.183149373912E-07
 external B-field            :     -0.00000000000    
 exchange                    :     -561.665867051    
 correlation                 :     -10.5644923864    
 electron entropic           :    -0.320777070628E-04
 total energy                :     -21426.5978466    
 (external B-field energy excluded from total)

Density of states at Fermi energy :    8.958333162    
 (states/Hartree/unit cell)

Estimated indirect band gap :   0.3580182933E-01
 from k-point     33 to k-point     17
Estimated direct band gap   :   0.4944073881    
 at k-point     27

Charges :
 core                        :    68.00000000    
 valence                     :    14.00000000    
 interstitial                :    16.07178740    
 muffin-tins (core leakage)
  species :    1 (Pb)
   atom    1                 :    65.92821260     (   36.89047341    )
 total in muffin-tins        :    65.92821260    
 total calculated charge     :    45.11021846    
 total charge                :    82.00000000    
 error                       :    36.88978154    

Moments :
 interstitial                :  -0.3864759184E-24 -0.8660289408E-23 -0.4688452552E-24
 muffin-tins
  species :    1 (Pb)
   atom    1                 :  -0.2830451035E-23 -0.9682491361E-22 -0.3467368582E-22
 total in muffin-tins        :  -0.2830451035E-23 -0.9682491361E-22 -0.3467368582E-22
 total moment                :  -0.3216926954E-23 -0.1054852030E-21 -0.3514253108E-22

RMS change in Kohn-Sham potential (target) :   0.2821962554E-04 (  0.1000000000E-05)
Absolute change in total energy (target)   :   0.6603628557E-02 (  0.1000000000E-03)

Time (CPU seconds) :        60.72

+--------------------+
| Loop number :   21 |
+--------------------+

Energies :
 Fermi                       :      36.6717411056    
 sum of eigenvalues          :     -5326.43150895    
 electron kinetic            :      28199.6924440    
 core electron kinetic       :      24625.5358813    
 Coulomb                     :     -49054.0590582    
 Coulomb potential           :     -32765.8692743    
 nuclear-nuclear             :     -12036.0705396    
 electron-nuclear            :     -41270.1077630    
 Hartree                     :      4252.11924437    
 Madelung                    :     -32671.1244211    
 xc potential                :     -760.254678669    
 xc effective B-field        :    -0.183149401866E-07
 external B-field            :      0.00000000000    
 exchange                    :     -561.665862652    
 correlation                 :     -10.5644923721    
 electron entropic           :    -0.320777070691E-04
 total energy                :     -21426.5970013    
 (external B-field energy excluded from total)

Density of states at Fermi energy :    8.958333164    
 (states/Hartree/unit cell)

Estimated indirect band gap :   0.3580190738E-01
 from k-point     33 to k-point     17
Estimated direct band gap   :   0.4944072045    
 at k-point     27

Charges :
 core                        :    68.00000000    
 valence                     :    14.00000000    
 interstitial                :    16.07178736    
 muffin-tins (core leakage)
  species :    1 (Pb)
   atom    1                 :    65.92821264     (   36.89047306    )
 total in muffin-tins        :    65.92821264    
 total calculated charge     :    45.11021881    
 total charge                :    82.00000000    
 error                       :    36.88978119    

Moments :
 interstitial                :   0.9302484951E-24  0.9945251339E-23  0.1318142392E-23
 muffin-tins
  species :    1 (Pb)
   atom    1                 :   0.1999854726E-22 -0.3746232996E-23 -0.6368659479E-22
 total in muffin-tins        :   0.1999854726E-22 -0.3746232996E-23 -0.6368659479E-22
 total moment                :   0.2092879575E-22  0.6199018342E-23 -0.6236845240E-22

RMS change in Kohn-Sham potential (target) :   0.1173077758E-04 (  0.1000000000E-05)
Absolute change in total energy (target)   :   0.2496211491E-02 (  0.1000000000E-03)

Time (CPU seconds) :        63.89

+--------------------+
| Loop number :   22 |
+--------------------+

Energies :
 Fermi                       :      36.6717414160    
 sum of eigenvalues          :     -5326.43130921    
 electron kinetic            :      28199.6925398    
 core electron kinetic       :      24625.5358837    
 Coulomb                     :     -49054.0588889    
 Coulomb potential           :     -32765.8691728    
 nuclear-nuclear             :     -12036.0705396    
 electron-nuclear            :     -41270.1075259    
 Hartree                     :      4252.11917655    
 Madelung                    :     -32671.1243025    
 xc potential                :     -760.254676211    
 xc effective B-field        :    -0.183149421652E-07
 external B-field            :      0.00000000000    
 exchange                    :     -561.665860813    
 correlation                 :     -10.5644923660    
 electron entropic           :    -0.320777070674E-04
 total energy                :     -21426.5967344    
 (external B-field energy excluded from total)

Density of states at Fermi energy :    8.958333164    
 (states/Hartree/unit cell)

Estimated indirect band gap :   0.3580194167E-01
 from k-point     33 to k-point     17
Estimated direct band gap   :   0.4944071199    
 at k-point     27

Charges :
 core                        :    68.00000000    
 valence                     :    14.00000000    
 interstitial                :    16.07178738    
 muffin-tins (core leakage)
  species :    1 (Pb)
   atom    1                 :    65.92821262     (   36.89047297    )
 total in muffin-tins        :    65.92821262    
 total calculated charge     :    45.11021890    
 total charge                :    82.00000000    
 error                       :    36.88978110    

Moments :
 interstitial                :  -0.1955685115E-23  0.5964008059E-23 -0.1476654672E-23
 muffin-tins
  species :    1 (Pb)
   atom    1                 :   0.1199609637E-22 -0.4194072596E-22  0.2336195315E-22
 total in muffin-tins        :   0.1199609637E-22 -0.4194072596E-22  0.2336195315E-22
 total moment                :   0.1004041125E-22 -0.3597671790E-22  0.2188529848E-22

RMS change in Kohn-Sham potential (target) :   0.4440456949E-05 (  0.1000000000E-05)
Absolute change in total energy (target)   :   0.8909945755E-03 (  0.1000000000E-03)

Time (CPU seconds) :        66.71

+--------------------+
| Loop number :   23 |
+--------------------+

Energies :
 Fermi                       :      36.6717410034    
 sum of eigenvalues          :     -5326.43125917    
 electron kinetic            :      28199.6925700    
 core electron kinetic       :      24625.5358815    
 Coulomb                     :     -49054.0588545    
 Coulomb potential           :     -32765.8691535    
 nuclear-nuclear             :     -12036.0705396    
 electron-nuclear            :     -41270.1074762    
 Hartree                     :      4252.11916135    
 Madelung                    :     -32671.1242777    
 xc potential                :     -760.254675663    
 xc effective B-field        :    -0.183149430973E-07
 external B-field            :      0.00000000000    
 exchange                    :     -561.665860403    
 correlation                 :     -10.5644923646    
 electron entropic           :    -0.320777070797E-04
 total energy                :     -21426.5966693    
 (external B-field energy excluded from total)

Density of states at Fermi energy :    8.958333168    
 (states/Hartree/unit cell)

Estimated indirect band gap :   0.3580195123E-01
 from k-point     33 to k-point     17
Estimated direct band gap   :   0.4944070861    
 at k-point     27

Charges :
 core                        :    68.00000000    
 valence                     :    14.00000000    
 interstitial                :    16.07178737    
 muffin-tins (core leakage)
  species :    1 (Pb)
   atom    1                 :    65.92821263     (   36.89047292    )
 total in muffin-tins        :    65.92821263    
 total calculated charge     :    45.11021895    
 total charge                :    82.00000000    
 error                       :    36.88978105    

Moments :
 interstitial                :  -0.8866423089E-24 -0.8039375616E-23 -0.4591817845E-24
 muffin-tins
  species :    1 (Pb)
   atom    1                 :   0.1476213502E-22 -0.2939130470E-22 -0.3348545729E-22
 total in muffin-tins        :   0.1476213502E-22 -0.2939130470E-22 -0.3348545729E-22
 total moment                :   0.1387549271E-22 -0.3743068032E-22 -0.3394463908E-22

RMS change in Kohn-Sham potential (target) :   0.1597564923E-05 (  0.1000000000E-05)
Absolute change in total energy (target)   :   0.2878533014E-03 (  0.1000000000E-03)

Time (CPU seconds) :        70.20

+--------------------+
| Loop number :   24 |
+--------------------+

Energies :
 Fermi                       :      36.6717406908    
 sum of eigenvalues          :     -5326.43124795    
 electron kinetic            :      28199.6925804    
 core electron kinetic       :      24625.5358807    
 Coulomb                     :     -49054.0588513    
 Coulomb potential           :     -32765.8691527    
 nuclear-nuclear             :     -12036.0705396    
 electron-nuclear            :     -41270.1074707    
 Hartree                     :      4252.11915899    
 Madelung                    :     -32671.1242749    
 xc potential                :     -760.254675603    
 xc effective B-field        :    -0.183149435083E-07
 external B-field            :     -0.00000000000    
 exchange                    :     -561.665860358    
 correlation                 :     -10.5644923645    
 electron entropic           :    -0.320777070784E-04
 total energy                :     -21426.5966557    
 (external B-field energy excluded from total)

Density of states at Fermi energy :    8.958333168    
 (states/Hartree/unit cell)

Estimated indirect band gap :   0.3580195400E-01
 from k-point     33 to k-point     17
Estimated direct band gap   :   0.4944070719    
 at k-point     27

Charges :
 core                        :    68.00000000    
 valence                     :    14.00000000    
 interstitial                :    16.07178736    
 muffin-tins (core leakage)
  species :    1 (Pb)
   atom    1                 :    65.92821264     (   36.89047289    )
 total in muffin-tins        :    65.92821264    
 total calculated charge     :    45.11021898    
 total charge                :    82.00000000    
 error                       :    36.88978102    

Moments :
 interstitial                :  -0.1805580341E-23  0.7659391215E-23 -0.7443356135E-24
 muffin-tins
  species :    1 (Pb)
   atom    1                 :  -0.1410722905E-22 -0.1425720246E-22 -0.1917279090E-22
 total in muffin-tins        :  -0.1410722905E-22 -0.1425720246E-22 -0.1917279090E-22
 total moment                :  -0.1591280939E-22 -0.6597811240E-23 -0.1991712652E-22

RMS change in Kohn-Sham potential (target) :   0.5471621235E-06 (  0.1000000000E-05)
Absolute change in total energy (target)   :   0.8552756844E-04 (  0.1000000000E-03)

Convergence targets achieved

Time (CPU seconds) :        73.02

+--------------------+
| Loop number :   25 |
+--------------------+

Energies :
 Fermi                       :      36.6717405560    
 sum of eigenvalues          :     -5326.43124562    
 electron kinetic            :      28199.6925838    
 core electron kinetic       :      24625.5358809    
 Coulomb                     :     -49054.0588491    
 Coulomb potential           :     -32765.8691538    
 nuclear-nuclear             :     -12036.0705396    
 electron-nuclear            :     -41270.1074652    
 Hartree                     :      4252.11915570    
 Madelung                    :     -32671.1242722    
 xc potential                :     -760.254675601    
 xc effective B-field        :    -0.183149436909E-07
 external B-field            :      0.00000000000    
 exchange                    :     -561.665860357    
 correlation                 :     -10.5644923645    
 electron entropic           :    -0.320777070720E-04
 total energy                :     -21426.5966501    
 (external B-field energy excluded from total)

Density of states at Fermi energy :    8.958333165    
 (states/Hartree/unit cell)

Estimated indirect band gap :   0.3580195547E-01
 from k-point     33 to k-point     17
Estimated direct band gap   :   0.4944070656    
 at k-point     27

Charges :
 core                        :    68.00000000    
 valence                     :    14.00000000    
 interstitial                :    16.07178736    
 muffin-tins (core leakage)
  species :    1 (Pb)
   atom    1                 :    65.92821264     (   36.89047288    )
 total in muffin-tins        :    65.92821264    
 total calculated charge     :    45.11021899    
 total charge                :    82.00000000    
 error                       :    36.88978101    

Moments :
 interstitial                :   0.2819718926E-23  0.8194576987E-23 -0.2335151048E-24
 muffin-tins
  species :    1 (Pb)
   atom    1                 :   0.2966472822E-23 -0.3200988485E-22  0.8680376095E-23
 total in muffin-tins        :   0.2966472822E-23 -0.3200988485E-22  0.8680376095E-23
 total moment                :   0.5786191748E-23 -0.2381530787E-22  0.8446860991E-23

+------------------------------+
| Self-consistent loop stopped |
+------------------------------+

Wrote STATE.OUT

Timings (CPU seconds) :
 initialisation                        :         2.97
 Hamiltonian and overlap matrix set up :         3.12
 first-variational eigenvalue equation :         2.04
 second-variational calculation        :        45.83
 charge density calculation            :        19.71
 potential calculation                 :         2.20
 total                                 :        75.87

+----------------------------+
| Elk version 4.0.15 stopped |
+----------------------------+
