+----------------------------+
| Elk version 4.0.15 started |
+----------------------------+

Date (YYYY-MM-DD) : 2019-01-25
Time (hh:mm:ss)   : 08:57:45

All units are atomic (Hartree, Bohr, etc.)

+-------------------------------------------------+
| Ground-state run starting from atomic densities |
+-------------------------------------------------+

Lattice vectors :
   0.000000000      0.5000000000      0.5000000000    
  0.5000000000       0.000000000      0.5000000000    
  0.5000000000      0.5000000000       0.000000000    

Reciprocal lattice vectors :
  -6.283185307       6.283185307       6.283185307    
   6.283185307      -6.283185307       6.283185307    
   6.283185307       6.283185307      -6.283185307    

Unit cell volume      :   0.2500000000    
Brillouin zone volume :    992.2008538    

Species :    1 (Pb)
 parameters loaded from : Pb.in
 name : lead
 nuclear charge    :   -82.00000000    
 electronic charge :    82.00000000    
 atomic mass :    377702.4940    
 muffin-tin radius :   0.3285533906    
 number of radial points in muffin-tin :    697
 number on inner part of muffin-tin    :    469
 atomic positions (lattice), magnetic fields (Cartesian) :
   1 :   0.00000000  0.00000000  0.00000000    0.00000000  0.00000000  0.00000000

Total number of atoms per unit cell :    1

Spin treatment :
 spin-polarised
 spin-orbit coupling
 global magnetic field (Cartesian) :    0.000000000       0.000000000       0.000000000    
 non-collinear magnetisation

Number of Bravais lattice symmetries :   48
Number of crystal symmetries         :   48
Crystal has inversion symmetry
Real symmetric eigensolver will be used

k-point grid :      8     8     8
k-point offset :    0.000000000       0.000000000       0.000000000    
k-point set is reduced with full crystal symmetry group
Total number of k-points :       29

Muffin-tin radius times maximum |G+k| :    8.000000000    
 using average radius
Maximum |G+k| for APW functions       :    24.34916281    
Maximum (1/2)|G+k|^2                  :    296.4408648    
Maximum |G| for potential and density :    48.69832662    
Constant for pseudocharge density :    4
Radial integration step length :    4

G-vector grid sizes :     12    12    12
Number of G-vectors :      531

Maximum angular momentum used for
 APW functions                      :    8
 H and O matrix elements outer loop :    7
 outer part of muffin-tin           :    7
 inner part of muffin-tin           :    3

Total nuclear charge    :   -82.00000000    
Total core charge       :    68.00000000    
Total valence charge    :    14.00000000    
Total excess charge     :    0.000000000    
Total electronic charge :    82.00000000    

Effective Wigner radius, r_s :   0.8995235040E-01

Number of empty states         :    8
Total number of valence states :   32
Total number of core states    :   68

Total number of local-orbitals :   15

Exchange-correlation functional :      3     0     0
 Perdew-Wang/Ceperley-Alder, Phys. Rev. B 45, 13244 (1992)
 Local density approximation (LDA)

Smearing type :    3
 Fermi-Dirac
Smearing width :   0.1000000000E-02
Effective electronic temperature (K) :    315.7750425    

Mixing type :    1
 Adaptive linear mixing

Density and potential initialised from atomic data

+------------------------------+
| Self-consistent loop started |
+------------------------------+

+--------------------+
| Loop number :    1 |
+--------------------+

Energies :
 Fermi                       :      24.4203883265    
 sum of eigenvalues          :     -5865.46276311    
 electron kinetic            :      28456.6690013    
 core electron kinetic       :      25280.4976841    
 Coulomb                     :     -50072.0064409    
 Coulomb potential           :     -33545.4302888    
 nuclear-nuclear             :     -12036.0705396    
 electron-nuclear            :     -42526.4415139    
 Hartree                     :      4490.50561257    
 Madelung                    :     -33299.2912965    
 xc potential                :     -776.701475619    
 xc effective B-field        :    -0.149862651466E-07
 external B-field            :      0.00000000000    
 exchange                    :     -573.969112375    
 correlation                 :     -10.6065194326    
 electron entropic           :    -0.714303030033E-04
 total energy                :     -22199.9131429    
 (external B-field energy excluded from total)

Density of states at Fermi energy :    24.67827484    
 (states/Hartree/unit cell)

Estimated indirect band gap :   0.2612898986E-02
 from k-point      6 to k-point     22
Estimated direct band gap   :   0.4392693241    
 at k-point      6

Charges :
 core                        :    68.00000000    
 valence                     :    14.00000000    
 interstitial                :    14.92502303    
 muffin-tins (core leakage)
  species :    1 (Pb)
   atom    1                 :    67.07497697     (   35.23148177    )
 total in muffin-tins        :    67.07497697    
 total calculated charge     :    46.76944039    
 total charge                :    82.00000000    
 error                       :    35.23055961    

Moments :
 interstitial                :   0.9705108974E-28 -0.1456246886E-30  0.2768309476E-28
 muffin-tins
  species :    1 (Pb)
   atom    1                 :  -0.2350329288E-22  0.1641655627E-22 -0.5442038406E-22
 total in muffin-tins        :  -0.2350329288E-22  0.1641655627E-22 -0.5442038406E-22
 total moment                :  -0.2350319583E-22  0.1641655612E-22 -0.5442035638E-22

Time (CPU seconds) :         4.36

+--------------------+
| Loop number :    2 |
+--------------------+

Energies :
 Fermi                       :      26.1126511805    
 sum of eigenvalues          :     -5789.58468892    
 electron kinetic            :      28421.3098844    
 core electron kinetic       :      25152.8162349    
 Coulomb                     :     -49930.4668350    
 Coulomb potential           :     -33436.4724459    
 nuclear-nuclear             :     -12036.0705396    
 electron-nuclear            :     -42352.3201450    
 Hartree                     :      4457.92384957    
 Madelung                    :     -33212.2306121    
 xc potential                :     -774.422127391    
 xc effective B-field        :    -0.169620883625E-07
 external B-field            :      0.00000000000    
 exchange                    :     -572.263944862    
 correlation                 :     -10.6007889531    
 electron entropic           :    -0.620664139305E-04
 total energy                :     -22092.0217465    
 (external B-field energy excluded from total)

Density of states at Fermi energy :    21.97586513    
 (states/Hartree/unit cell)

Estimated indirect band gap :   0.2102840036E-01
 from k-point      6 to k-point     22
Estimated direct band gap   :   0.4926211446    
 at k-point      6

Charges :
 core                        :    68.00000000    
 valence                     :    14.00000000    
 interstitial                :    15.07373272    
 muffin-tins (core leakage)
  species :    1 (Pb)
   atom    1                 :    66.92626728     (   35.47284456    )
 total in muffin-tins        :    66.92626728    
 total calculated charge     :    46.52805235    
 total charge                :    82.00000000    
 error                       :    35.47194765    

Moments :
 interstitial                :  -0.1618361513E-25  0.5609154494E-25 -0.4297508156E-25
 muffin-tins
  species :    1 (Pb)
   atom    1                 :   0.6992965659E-23 -0.4227818016E-22 -0.1355287576E-21
 total in muffin-tins        :   0.6992965659E-23 -0.4227818016E-22 -0.1355287576E-21
 total moment                :   0.6976782044E-23 -0.4222208862E-22 -0.1355717327E-21

RMS change in Kohn-Sham potential (target) :    14.81968012     (  0.1000000000E-05)
Absolute change in total energy (target)   :    107.8913963     (  0.1000000000E-03)

Time (CPU seconds) :         6.02

+--------------------+
| Loop number :    3 |
+--------------------+

Energies :
 Fermi                       :      28.2826192767    
 sum of eigenvalues          :     -5692.55897026    
 electron kinetic            :      28371.8742007    
 core electron kinetic       :      25009.8358069    
 Coulomb                     :     -49743.6836651    
 Coulomb potential           :     -33293.0078066    
 nuclear-nuclear             :     -12036.0705396    
 electron-nuclear            :     -42122.2184445    
 Hartree                     :      4414.60531892    
 Madelung                    :     -33097.1797618    
 xc potential                :     -771.425364360    
 xc effective B-field        :    -0.195487172756E-07
 external B-field            :      0.00000000000    
 exchange                    :     -570.022102636    
 correlation                 :     -10.5932289279    
 electron entropic           :    -0.620342125368E-04
 total energy                :     -21952.4248580    
 (external B-field energy excluded from total)

Density of states at Fermi energy :    21.97345584    
 (states/Hartree/unit cell)

Estimated indirect band gap :   0.5468495422E-01
 from k-point      6 to k-point     22
Estimated direct band gap   :   0.5716209813    
 at k-point      6

Charges :
 core                        :    68.00000000    
 valence                     :    14.00000000    
 interstitial                :    15.26948502    
 muffin-tins (core leakage)
  species :    1 (Pb)
   atom    1                 :    66.73051498     (   35.77692554    )
 total in muffin-tins        :    66.73051498    
 total calculated charge     :    46.22393554    
 total charge                :    82.00000000    
 error                       :    35.77606446    

Moments :
 interstitial                :   0.2735526906E-24  0.2114825834E-24  0.3724116069E-24
 muffin-tins
  species :    1 (Pb)
   atom    1                 :  -0.3104156761E-22  0.6102550498E-22  0.3662961185E-22
 total in muffin-tins        :  -0.3104156761E-22  0.6102550498E-22  0.3662961185E-22
 total moment                :  -0.3076801492E-22  0.6123698756E-22  0.3700202346E-22

RMS change in Kohn-Sham potential (target) :    11.47260093     (  0.1000000000E-05)
Absolute change in total energy (target)   :    166.5697376     (  0.1000000000E-03)

Time (CPU seconds) :         7.77

+--------------------+
| Loop number :    4 |
+--------------------+

Energies :
 Fermi                       :      30.5577328926    
 sum of eigenvalues          :     -5591.35337393    
 electron kinetic            :      28316.2470178    
 core electron kinetic       :      24874.7831759    
 Coulomb                     :     -49543.1739438    
 Coulomb potential           :     -33139.3815322    
 nuclear-nuclear             :     -12036.0705396    
 electron-nuclear            :     -41874.8252762    
 Hartree                     :      4367.72187201    
 Madelung                    :     -32973.4831777    
 xc potential                :     -768.218859575    
 xc effective B-field        :    -0.223332378672E-07
 external B-field            :      0.00000000000    
 exchange                    :     -567.623385276    
 correlation                 :     -10.5850994997    
 electron entropic           :    -0.621528333183E-04
 total energy                :     -21805.1354729    
 (external B-field energy excluded from total)

Density of states at Fermi energy :    21.98325202    
 (states/Hartree/unit cell)

Estimated indirect band gap :   0.4638626647E-01
 from k-point     13 to k-point     22
Estimated direct band gap   :   0.6687873883    
 at k-point      6

Charges :
 core                        :    68.00000000    
 valence                     :    14.00000000    
 interstitial                :    15.48148674    
 muffin-tins (core leakage)
  species :    1 (Pb)
   atom    1                 :    66.51851326     (   36.09021998    )
 total in muffin-tins        :    66.51851326    
 total calculated charge     :    45.91059946    
 total charge                :    82.00000000    
 error                       :    36.08940054    

Moments :
 interstitial                :  -0.7459918415E-24  0.2697610137E-24  0.4916388736E-24
 muffin-tins
  species :    1 (Pb)
   atom    1                 :  -0.2239704955E-22 -0.2087570252E-22  0.2830423026E-22
 total in muffin-tins        :  -0.2239704955E-22 -0.2087570252E-22  0.2830423026E-22
 total moment                :  -0.2314304139E-22 -0.2060594151E-22  0.2879586914E-22

RMS change in Kohn-Sham potential (target) :    7.967539020     (  0.1000000000E-05)
Absolute change in total energy (target)   :    188.9318195     (  0.1000000000E-03)

Time (CPU seconds) :         9.53

+--------------------+
| Loop number :    5 |
+--------------------+

Energies :
 Fermi                       :      32.6040296622    
 sum of eigenvalues          :     -5501.11322867    
 electron kinetic            :      28264.6219705    
 core electron kinetic       :      24765.4992204    
 Coulomb                     :     -49361.3806348    
 Coulomb potential           :     -33000.4213448    
 nuclear-nuclear             :     -12036.0705396    
 electron-nuclear            :     -41650.1988456    
 Hartree                     :      4324.88875036    
 Madelung                    :     -32861.1699624    
 xc potential                :     -765.313854289    
 xc effective B-field        :    -0.248361130463E-07
 external B-field            :      0.00000000000    
 exchange                    :     -565.450248626    
 correlation                 :     -10.5776873497    
 electron entropic           :    -0.104500512558E-03
 total energy                :     -21672.7867048    
 (external B-field energy excluded from total)

Density of states at Fermi energy :    35.33450631    
 (states/Hartree/unit cell)

Estimated indirect band gap :   0.1500405220    
 from k-point     14 to k-point     22
Estimated direct band gap   :   0.2725810016    
 at k-point     13

Charges :
 core                        :    68.00000000    
 valence                     :    14.00000000    
 interstitial                :    15.67863139    
 muffin-tins (core leakage)
  species :    1 (Pb)
   atom    1                 :    66.32136861     (   36.36770562    )
 total in muffin-tins        :    66.32136861    
 total calculated charge     :    45.63307464    
 total charge                :    82.00000000    
 error                       :    36.36692536    

Moments :
 interstitial                :  -0.7058382724E-24 -0.1016706673E-23  0.9383661022E-24
 muffin-tins
  species :    1 (Pb)
   atom    1                 :   0.3224065595E-22  0.4195931422E-22  0.6706274252E-22
 total in muffin-tins        :   0.3224065595E-22  0.4195931422E-22  0.6706274252E-22
 total moment                :   0.3153481768E-22  0.4094260755E-22  0.6800110862E-22

RMS change in Kohn-Sham potential (target) :    4.874652277     (  0.1000000000E-05)
Absolute change in total energy (target)   :    179.5817230     (  0.1000000000E-03)

Time (CPU seconds) :        11.29

+--------------------+
| Loop number :    6 |
+--------------------+

Energies :
 Fermi                       :      34.2037821756    
 sum of eigenvalues          :     -5431.16922935    
 electron kinetic            :      28225.7302698    
 core electron kinetic       :      24690.2129254    
 Coulomb                     :     -49221.6803737    
 Coulomb potential           :     -32893.8260427    
 nuclear-nuclear             :     -12036.0705396    
 electron-nuclear            :     -41477.3936255    
 Hartree                     :      4291.78379138    
 Madelung                    :     -32774.7673523    
 xc potential                :     -763.073456413    
 xc effective B-field        :    -0.282072346234E-07
 external B-field            :     -0.00000000000    
 exchange                    :     -563.774314565    
 correlation                 :     -10.5719281259    
 electron entropic           :    -0.632488805467E-04
 total energy                :     -21570.2964098    
 (external B-field energy excluded from total)

Density of states at Fermi energy :    22.16608352    
 (states/Hartree/unit cell)

Estimated indirect band gap :   0.6905858064E-02
 from k-point     11 to k-point     22
Estimated direct band gap   :   0.3556508224    
 at k-point     13

Charges :
 core                        :    68.00000000    
 valence                     :    14.00000000    
 interstitial                :    15.83698681    
 muffin-tins (core leakage)
  species :    1 (Pb)
   atom    1                 :    66.16301319     (   36.58231588    )
 total in muffin-tins        :    66.16301319    
 total calculated charge     :    45.41843096    
 total charge                :    82.00000000    
 error                       :    36.58156904    

Moments :
 interstitial                :   0.7375413941E-24 -0.2381249490E-24  0.1824853328E-23
 muffin-tins
  species :    1 (Pb)
   atom    1                 :  -0.3464557379E-22 -0.4017156670E-22 -0.4904542532E-22
 total in muffin-tins        :  -0.3464557379E-22 -0.4017156670E-22 -0.4904542532E-22
 total moment                :  -0.3390803240E-22 -0.4040969165E-22 -0.4722057200E-22

RMS change in Kohn-Sham potential (target) :    2.564160146     (  0.1000000000E-05)
Absolute change in total energy (target)   :    147.3857257     (  0.1000000000E-03)

Time (CPU seconds) :        13.04

+--------------------+
| Loop number :    7 |
+--------------------+

Energies :
 Fermi                       :      35.3048138208    
 sum of eigenvalues          :     -5383.71883919    
 electron kinetic            :      28202.8682783    
 core electron kinetic       :      24647.1066977    
 Coulomb                     :     -49131.2763726    
 Coulomb potential           :     -32824.9808106    
 nuclear-nuclear             :     -12036.0705396    
 electron-nuclear            :     -41365.4308554    
 Hartree                     :      4270.22502241    
 Madelung                    :     -32718.7859673    
 xc potential                :     -761.606306926    
 xc effective B-field        :    -0.295423512772E-07
 external B-field            :      0.00000000000    
 exchange                    :     -562.676837560    
 correlation                 :     -10.5681208504    
 electron entropic           :    -0.620228222486E-04
 total energy                :     -21501.6531147    
 (external B-field energy excluded from total)

Density of states at Fermi energy :    21.97275876    
 (states/Hartree/unit cell)

Estimated indirect band gap :   0.1445901373E-01
 from k-point     11 to k-point     22
Estimated direct band gap   :   0.4105286330    
 at k-point     13

Charges :
 core                        :    68.00000000    
 valence                     :    14.00000000    
 interstitial                :    15.94683949    
 muffin-tins (core leakage)
  species :    1 (Pb)
   atom    1                 :    66.05316051     (   36.72747913    )
 total in muffin-tins        :    66.05316051    
 total calculated charge     :    45.27324507    
 total charge                :    82.00000000    
 error                       :    36.72675493    

Moments :
 interstitial                :   0.8183154847E-25  0.2564315440E-24 -0.4250625273E-24
 muffin-tins
  species :    1 (Pb)
   atom    1                 :  -0.1007391828E-22 -0.3099717489E-22  0.1035939759E-22
 total in muffin-tins        :  -0.1007391828E-22 -0.3099717489E-22  0.1035939759E-22
 total moment                :  -0.9992086728E-23 -0.3074074335E-22  0.9934335067E-23

RMS change in Kohn-Sham potential (target) :    1.117496853     (  0.1000000000E-05)
Absolute change in total energy (target)   :    105.4897266     (  0.1000000000E-03)

Time (CPU seconds) :        14.80

+--------------------+
| Loop number :    8 |
+--------------------+

Energies :
 Fermi                       :      35.9751928082    
 sum of eigenvalues          :     -5355.41104514    
 electron kinetic            :      28193.5686975    
 core electron kinetic       :      24627.6884603    
 Coulomb                     :     -49082.8444217    
 Coulomb potential           :     -32788.1797137    
 nuclear-nuclear             :     -12036.0705396    
 electron-nuclear            :     -41305.3680507    
 Hartree                     :      4258.59416851    
 Madelung                    :     -32688.7545649    
 xc potential                :     -760.800028933    
 xc effective B-field        :    -0.302793311905E-07
 external B-field            :     -0.00000000000    
 exchange                    :     -562.073735751    
 correlation                 :     -10.5660005404    
 electron entropic           :    -0.620215609582E-04
 total energy                :     -21461.9155226    
 (external B-field energy excluded from total)

Density of states at Fermi energy :    21.97265659    
 (states/Hartree/unit cell)

Estimated indirect band gap :   0.1987294432E-01
 from k-point     11 to k-point     22
Estimated direct band gap   :   0.4416407605    
 at k-point     13

Charges :
 core                        :    68.00000000    
 valence                     :    14.00000000    
 interstitial                :    16.01253781    
 muffin-tins (core leakage)
  species :    1 (Pb)
   atom    1                 :    65.98746219     (   36.81307925    )
 total in muffin-tins        :    65.98746219    
 total calculated charge     :    45.18763198    
 total charge                :    82.00000000    
 error                       :    36.81236802    

Moments :
 interstitial                :   0.1546209826E-23 -0.3030882604E-23 -0.1190670485E-23
 muffin-tins
  species :    1 (Pb)
   atom    1                 :  -0.2409919067E-23 -0.1910794917E-22 -0.2206133281E-22
 total in muffin-tins        :  -0.2409919067E-23 -0.1910794917E-22 -0.2206133281E-22
 total moment                :  -0.8637092413E-24 -0.2213883178E-22 -0.2325200329E-22

RMS change in Kohn-Sham potential (target) :   0.3786511714     (  0.1000000000E-05)
Absolute change in total energy (target)   :    66.11002372     (  0.1000000000E-03)

Time (CPU seconds) :        16.55

+--------------------+
| Loop number :    9 |
+--------------------+

Energies :
 Fermi                       :      36.3383570980    
 sum of eigenvalues          :     -5340.39403855    
 electron kinetic            :      28192.4401309    
 core electron kinetic       :      24621.8451533    
 Coulomb                     :     -49062.0445485    
 Coulomb potential           :     -32772.3985705    
 nuclear-nuclear             :     -12036.0705396    
 electron-nuclear            :     -41279.5494474    
 Hartree                     :      4253.57543845    
 Madelung                    :     -32675.8452633    
 xc potential                :     -760.435598967    
 xc effective B-field        :    -0.306514839518E-07
 external B-field            :      0.00000000000    
 exchange                    :     -561.801155516    
 correlation                 :     -10.5650212663    
 electron entropic           :    -0.620215536266E-04
 total energy                :     -21441.9706564    
 (external B-field energy excluded from total)

Density of states at Fermi energy :    21.97265612    
 (states/Hartree/unit cell)

Estimated indirect band gap :   0.2308022968E-01
 from k-point     11 to k-point     22
Estimated direct band gap   :   0.4568211555    
 at k-point     13

Charges :
 core                        :    68.00000000    
 valence                     :    14.00000000    
 interstitial                :    16.04640363    
 muffin-tins (core leakage)
  species :    1 (Pb)
   atom    1                 :    65.95359637     (   36.85702137    )
 total in muffin-tins        :    65.95359637    
 total calculated charge     :    45.14368443    
 total charge                :    82.00000000    
 error                       :    36.85631557    

Moments :
 interstitial                :   0.4923633905E-25  0.7446539002E-24 -0.5994480746E-23
 muffin-tins
  species :    1 (Pb)
   atom    1                 :   0.1046986411E-22 -0.2547300649E-22 -0.2197731795E-22
 total in muffin-tins        :   0.1046986411E-22 -0.2547300649E-22 -0.2197731795E-22
 total moment                :   0.1051910045E-22 -0.2472835259E-22 -0.2797179870E-22

RMS change in Kohn-Sham potential (target) :   0.9346465204E-01 (  0.1000000000E-05)
Absolute change in total energy (target)   :    36.47237212     (  0.1000000000E-03)

Time (CPU seconds) :        18.31

+--------------------+
| Loop number :   10 |
+--------------------+

Energies :
 Fermi                       :      36.5163518806    
 sum of eigenvalues          :     -5333.12082337    
 electron kinetic            :      28194.5738281    
 core electron kinetic       :      24621.7058540    
 Coulomb                     :     -49055.3639746    
 Coulomb potential           :     -32767.3901175    
 nuclear-nuclear             :     -12036.0705396    
 electron-nuclear            :     -41271.1967527    
 Hartree                     :      4251.90331760    
 Madelung                    :     -32671.6689159    
 xc potential                :     -760.304533979    
 xc effective B-field        :    -0.308167675597E-07
 external B-field            :      0.00000000000    
 exchange                    :     -561.703134667    
 correlation                 :     -10.5646544164    
 electron entropic           :    -0.620215533003E-04
 total energy                :     -21433.0579976    
 (external B-field energy excluded from total)

Density of states at Fermi energy :    21.97265609    
 (states/Hartree/unit cell)

Estimated indirect band gap :   0.2469201250E-01
 from k-point     11 to k-point     22
Estimated direct band gap   :   0.4631957275    
 at k-point     13

Charges :
 core                        :    68.00000000    
 valence                     :    14.00000000    
 interstitial                :    16.06161743    
 muffin-tins (core leakage)
  species :    1 (Pb)
   atom    1                 :    65.93838257     (   36.87687437    )
 total in muffin-tins        :    65.93838257    
 total calculated charge     :    45.12382946    
 total charge                :    82.00000000    
 error                       :    36.87617054    

Moments :
 interstitial                :  -0.2660030384E-23  0.4767247087E-23 -0.5959371234E-23
 muffin-tins
  species :    1 (Pb)
   atom    1                 :  -0.3977620592E-23  0.1763596301E-22 -0.6739060328E-22
 total in muffin-tins        :  -0.3977620592E-23  0.1763596301E-22 -0.6739060328E-22
 total moment                :  -0.6637650976E-23  0.2240321010E-22 -0.7334997452E-22

RMS change in Kohn-Sham potential (target) :   0.3738195404E-01 (  0.1000000000E-05)
Absolute change in total energy (target)   :    18.03075178     (  0.1000000000E-03)

Time (CPU seconds) :        20.08

+--------------------+
| Loop number :   11 |
+--------------------+

Energies :
 Fermi                       :      36.5972910547    
 sum of eigenvalues          :     -5329.90366595    
 electron kinetic            :      28196.6984422    
 core electron kinetic       :      24622.6457787    
 Coulomb                     :     -49053.9810774    
 Coulomb potential           :     -32766.3341854    
 nuclear-nuclear             :     -12036.0705396    
 electron-nuclear            :     -41269.4868903    
 Hartree                     :      4251.57635249    
 Madelung                    :     -32670.8139847    
 xc potential                :     -760.267922776    
 xc effective B-field        :    -0.308788431834E-07
 external B-field            :     -0.00000000000    
 exchange                    :     -561.675760610    
 correlation                 :     -10.5645429842    
 electron entropic           :    -0.620215532440E-04
 total energy                :     -21429.5230008    
 (external B-field energy excluded from total)

Density of states at Fermi energy :    21.97265608    
 (states/Hartree/unit cell)

Estimated indirect band gap :   0.2540228537E-01
 from k-point     11 to k-point     22
Estimated direct band gap   :   0.4655039456    
 at k-point     13

Charges :
 core                        :    68.00000000    
 valence                     :    14.00000000    
 interstitial                :    16.06800492    
 muffin-tins (core leakage)
  species :    1 (Pb)
   atom    1                 :    65.93199508     (   36.88574319    )
 total in muffin-tins        :    65.93199508    
 total calculated charge     :    45.11495991    
 total charge                :    82.00000000    
 error                       :    36.88504009    

Moments :
 interstitial                :  -0.2539745673E-23  0.1301870765E-23  0.3320033581E-23
 muffin-tins
  species :    1 (Pb)
   atom    1                 :  -0.4033576361E-23 -0.5713915410E-22 -0.1084575843E-22
 total in muffin-tins        :  -0.4033576361E-23 -0.5713915410E-22 -0.1084575843E-22
 total moment                :  -0.6573322034E-23 -0.5583728333E-22 -0.7525724854E-23

RMS change in Kohn-Sham potential (target) :   0.2770928889E-01 (  0.1000000000E-05)
Absolute change in total energy (target)   :    8.042684758     (  0.1000000000E-03)

Time (CPU seconds) :        21.82

+--------------------+
| Loop number :   12 |
+--------------------+

Energies :
 Fermi                       :      36.6328156555    
 sum of eigenvalues          :     -5328.36229304    
 electron kinetic            :      28198.2121251    
 core electron kinetic       :      24623.5507706    
 Coulomb                     :     -49053.9923153    
 Coulomb potential           :     -32766.3131915    
 nuclear-nuclear             :     -12036.0705396    
 electron-nuclear            :     -41269.5303599    
 Hartree                     :      4251.60858420    
 Madelung                    :     -32670.8357195    
 xc potential                :     -760.261226602    
 xc effective B-field        :    -0.308968780852E-07
 external B-field            :      0.00000000000    
 exchange                    :     -561.670757550    
 correlation                 :     -10.5645177161    
 electron entropic           :    -0.620215532130E-04
 total energy                :     -21428.0155275    
 (external B-field energy excluded from total)

Density of states at Fermi energy :    21.97265607    
 (states/Hartree/unit cell)

Estimated indirect band gap :   0.2567179275E-01
 from k-point     11 to k-point     22
Estimated direct band gap   :   0.4662249161    
 at k-point     13

Charges :
 core                        :    68.00000000    
 valence                     :    14.00000000    
 interstitial                :    16.07044219    
 muffin-tins (core leakage)
  species :    1 (Pb)
   atom    1                 :    65.92955781     (   36.88938429    )
 total in muffin-tins        :    65.92955781    
 total calculated charge     :    45.11131845    
 total charge                :    82.00000000    
 error                       :    36.88868155    

Moments :
 interstitial                :  -0.2229264298E-24  0.1190548515E-23  0.1028474660E-23
 muffin-tins
  species :    1 (Pb)
   atom    1                 :  -0.6006594239E-23  0.2443660279E-22 -0.7417205133E-22
 total in muffin-tins        :  -0.6006594239E-23  0.2443660279E-22 -0.7417205133E-22
 total moment                :  -0.6229520668E-23  0.2562715130E-22 -0.7314357667E-22

RMS change in Kohn-Sham potential (target) :   0.1796142807E-01 (  0.1000000000E-05)
Absolute change in total energy (target)   :    3.518144545     (  0.1000000000E-03)

Time (CPU seconds) :        23.59

+--------------------+
| Loop number :   13 |
+--------------------+

Energies :
 Fermi                       :      36.6480291470    
 sum of eigenvalues          :     -5327.59038590    
 electron kinetic            :      28199.1545257    
 core electron kinetic       :      24624.1946847    
 Coulomb                     :     -49054.2373036    
 Coulomb potential           :     -32766.4827440    
 nuclear-nuclear             :     -12036.0705396    
 electron-nuclear            :     -41269.8507840    
 Hartree                     :      4251.68402002    
 Madelung                    :     -32670.9959316    
 xc potential                :     -760.262167588    
 xc effective B-field        :    -0.308992907365E-07
 external B-field            :      0.00000000000    
 exchange                    :     -561.671463990    
 correlation                 :     -10.5645167136    
 electron entropic           :    -0.620215532118E-04
 total energy                :     -21427.3188206    
 (external B-field energy excluded from total)

Density of states at Fermi energy :    21.97265607    
 (states/Hartree/unit cell)

Estimated indirect band gap :   0.2575601238E-01
 from k-point     11 to k-point     22
Estimated direct band gap   :   0.4664056639    
 at k-point     13

Charges :
 core                        :    68.00000000    
 valence                     :    14.00000000    
 interstitial                :    16.07124615    
 muffin-tins (core leakage)
  species :    1 (Pb)
   atom    1                 :    65.92875385     (   36.89068247    )
 total in muffin-tins        :    65.92875385    
 total calculated charge     :    45.11002007    
 total charge                :    82.00000000    
 error                       :    36.88997993    

Moments :
 interstitial                :   0.1288475227E-23 -0.2404246739E-23 -0.4040279332E-23
 muffin-tins
  species :    1 (Pb)
   atom    1                 :  -0.1526731777E-22  0.6488926876E-23  0.4510004989E-22
 total in muffin-tins        :  -0.1526731777E-22  0.6488926876E-23  0.4510004989E-22
 total moment                :  -0.1397884254E-22  0.4084680137E-23  0.4105977056E-22

RMS change in Kohn-Sham potential (target) :   0.9989874511E-02 (  0.1000000000E-05)
Absolute change in total energy (target)   :    1.576243004     (  0.1000000000E-03)

Time (CPU seconds) :        25.34

+--------------------+
| Loop number :   14 |
+--------------------+

Energies :
 Fermi                       :      36.6544299374    
 sum of eigenvalues          :     -5327.19014917    
 electron kinetic            :      28199.6859333    
 core electron kinetic       :      24624.5865099    
 Coulomb                     :     -49054.4133665    
 Coulomb potential           :     -32766.6122219    
 nuclear-nuclear             :     -12036.0705396    
 electron-nuclear            :     -41270.0734319    
 Hartree                     :      4251.73060497    
 Madelung                    :     -32671.1072555    
 xc potential                :     -760.263860485    
 xc effective B-field        :    -0.308977117132E-07
 external B-field            :      0.00000000000    
 exchange                    :     -561.672731280    
 correlation                 :     -10.5645198057    
 electron entropic           :    -0.620215532025E-04
 total energy                :     -21426.9647463    
 (external B-field energy excluded from total)

Density of states at Fermi energy :    21.97265606    
 (states/Hartree/unit cell)

Estimated indirect band gap :   0.2577513719E-01
 from k-point     11 to k-point     22
Estimated direct band gap   :   0.4664317280    
 at k-point     13

Charges :
 core                        :    68.00000000    
 valence                     :    14.00000000    
 interstitial                :    16.07144582    
 muffin-tins (core leakage)
  species :    1 (Pb)
   atom    1                 :    65.92855418     (   36.89103603    )
 total in muffin-tins        :    65.92855418    
 total calculated charge     :    45.10966637    
 total charge                :    82.00000000    
 error                       :    36.89033363    

Moments :
 interstitial                :   0.1012912986E-23 -0.3091726189E-23  0.1580959375E-23
 muffin-tins
  species :    1 (Pb)
   atom    1                 :   0.1940573043E-22  0.2848868419E-22  0.2520663212E-22
 total in muffin-tins        :   0.1940573043E-22  0.2848868419E-22  0.2520663212E-22
 total moment                :   0.2041864342E-22  0.2539695800E-22  0.2678759149E-22

RMS change in Kohn-Sham potential (target) :   0.4950827648E-02 (  0.1000000000E-05)
Absolute change in total energy (target)   :   0.7481350507     (  0.1000000000E-03)

Time (CPU seconds) :        27.11

+--------------------+
| Loop number :   15 |
+--------------------+

Energies :
 Fermi                       :      36.6570530547    
 sum of eigenvalues          :     -5326.98353997    
 electron kinetic            :      28199.9621736    
 core electron kinetic       :      24624.8002031    
 Coulomb                     :     -49054.5021818    
 Coulomb potential           :     -32766.6807761    
 nuclear-nuclear             :     -12036.0705396    
 electron-nuclear            :     -41270.1825084    
 Hartree                     :      4251.75086614    
 Madelung                    :     -32671.1617938    
 xc potential                :     -760.264937453    
 xc effective B-field        :    -0.308959755861E-07
 external B-field            :      0.00000000000    
 exchange                    :     -561.673537160    
 correlation                 :     -10.5645222073    
 electron entropic           :    -0.620215532087E-04
 total energy                :     -21426.7781296    
 (external B-field energy excluded from total)

Density of states at Fermi energy :    21.97265607    
 (states/Hartree/unit cell)

Estimated indirect band gap :   0.2577606835E-01
 from k-point     11 to k-point     22
Estimated direct band gap   :   0.4664246847    
 at k-point     13

Charges :
 core                        :    68.00000000    
 valence                     :    14.00000000    
 interstitial                :    16.07145690    
 muffin-tins (core leakage)
  species :    1 (Pb)
   atom    1                 :    65.92854310     (   36.89106810    )
 total in muffin-tins        :    65.92854310    
 total calculated charge     :    45.10963418    
 total charge                :    82.00000000    
 error                       :    36.89036582    

Moments :
 interstitial                :   0.6222343172E-24 -0.1469733439E-23  0.1752850729E-23
 muffin-tins
  species :    1 (Pb)
   atom    1                 :   0.9531199464E-24 -0.3790954096E-23  0.2878323445E-22
 total in muffin-tins        :   0.9531199464E-24 -0.3790954096E-23  0.2878323445E-22
 total moment                :   0.1575354264E-23 -0.5260687534E-23  0.3053608518E-22

RMS change in Kohn-Sham potential (target) :   0.2225157952E-02 (  0.1000000000E-05)
Absolute change in total energy (target)   :   0.3736504793     (  0.1000000000E-03)

Time (CPU seconds) :        28.87

+--------------------+
| Loop number :   16 |
+--------------------+

Energies :
 Fermi                       :      36.6580787034    
 sum of eigenvalues          :     -5326.88233298    
 electron kinetic            :      28200.0942921    
 core electron kinetic       :      24624.9054489    
 Coulomb                     :     -49054.5394340    
 Coulomb potential           :     -32766.7111602    
 nuclear-nuclear             :     -12036.0705396    
 electron-nuclear            :     -41270.2266288    
 Hartree                     :      4251.75773430    
 Madelung                    :     -32671.1838540    
 xc potential                :     -760.265464888    
 xc effective B-field        :    -0.308948880098E-07
 external B-field            :      0.00000000000    
 exchange                    :     -561.673931741    
 correlation                 :     -10.5645235028    
 electron entropic           :    -0.620215532035E-04
 total energy                :     -21426.6836592    
 (external B-field energy excluded from total)

Density of states at Fermi energy :    21.97265606    
 (states/Hartree/unit cell)

Estimated indirect band gap :   0.2577391114E-01
 from k-point     11 to k-point     22
Estimated direct band gap   :   0.4664157041    
 at k-point     13

Charges :
 core                        :    68.00000000    
 valence                     :    14.00000000    
 interstitial                :    16.07142956    
 muffin-tins (core leakage)
  species :    1 (Pb)
   atom    1                 :    65.92857044     (   36.89102600    )
 total in muffin-tins        :    65.92857044    
 total calculated charge     :    45.10967622    
 total charge                :    82.00000000    
 error                       :    36.89032378    

Moments :
 interstitial                :  -0.3856300328E-23  0.3177097813E-24  0.3164306618E-23
 muffin-tins
  species :    1 (Pb)
   atom    1                 :   0.6073707449E-23 -0.6473889738E-22 -0.2790497390E-22
 total in muffin-tins        :   0.6073707449E-23 -0.6473889738E-22 -0.2790497390E-22
 total moment                :   0.2217407121E-23 -0.6442118760E-22 -0.2474066728E-22

RMS change in Kohn-Sham potential (target) :   0.9101504595E-03 (  0.1000000000E-05)
Absolute change in total energy (target)   :   0.1878830035     (  0.1000000000E-03)

Time (CPU seconds) :        30.62

+--------------------+
| Loop number :   17 |
+--------------------+

Energies :
 Fermi                       :      36.6584540821    
 sum of eigenvalues          :     -5326.83716106    
 electron kinetic            :      28200.1515701    
 core electron kinetic       :      24624.9517323    
 Coulomb                     :     -49054.5529641    
 Coulomb potential           :     -32766.7230484    
 nuclear-nuclear             :     -12036.0705396    
 electron-nuclear            :     -41270.2418007    
 Hartree                     :      4251.75937611    
 Madelung                    :     -32671.1914399    
 xc potential                :     -760.265682752    
 xc effective B-field        :    -0.308943753802E-07
 external B-field            :     -0.00000000000    
 exchange                    :     -561.674094699    
 correlation                 :     -10.5645240739    
 electron entropic           :    -0.620215532020E-04
 total energy                :     -21426.6400748    
 (external B-field energy excluded from total)

Density of states at Fermi energy :    21.97265606    
 (states/Hartree/unit cell)

Estimated indirect band gap :   0.2577234750E-01
 from k-point     11 to k-point     22
Estimated direct band gap   :   0.4664106259    
 at k-point     13

Charges :
 core                        :    68.00000000    
 valence                     :    14.00000000    
 interstitial                :    16.07140767    
 muffin-tins (core leakage)
  species :    1 (Pb)
   atom    1                 :    65.92859233     (   36.89098866    )
 total in muffin-tins        :    65.92859233    
 total calculated charge     :    45.10971352    
 total charge                :    82.00000000    
 error                       :    36.89028648    

Moments :
 interstitial                :  -0.3093031910E-23 -0.1024232425E-23 -0.3225864303E-23
 muffin-tins
  species :    1 (Pb)
   atom    1                 :  -0.2027045054E-22 -0.2184739224E-22  0.2178373340E-23
 total in muffin-tins        :  -0.2027045054E-22 -0.2184739224E-22  0.2178373340E-23
 total moment                :  -0.2336348245E-22 -0.2287162467E-22 -0.1047490963E-23

RMS change in Kohn-Sham potential (target) :   0.3420976753E-03 (  0.1000000000E-05)
Absolute change in total energy (target)   :   0.9055519139E-01 (  0.1000000000E-03)

Time (CPU seconds) :        32.38

+--------------------+
| Loop number :   18 |
+--------------------+

Energies :
 Fermi                       :      36.6585813426    
 sum of eigenvalues          :     -5326.81925483    
 electron kinetic            :      28200.1736445    
 core electron kinetic       :      24624.9693681    
 Coulomb                     :     -49054.5570801    
 Coulomb potential           :     -32766.7271441    
 nuclear-nuclear             :     -12036.0705396    
 electron-nuclear            :     -41270.2459369    
 Hartree                     :      4251.75939643    
 Madelung                    :     -32671.1935080    
 xc potential                :     -760.265755261    
 xc effective B-field        :    -0.308941887790E-07
 external B-field            :      0.00000000000    
 exchange                    :     -561.674148927    
 correlation                 :     -10.5645242723    
 electron entropic           :    -0.620215532038E-04
 total energy                :     -21426.6221708    
 (external B-field energy excluded from total)

Density of states at Fermi energy :    21.97265606    
 (states/Hartree/unit cell)

Estimated indirect band gap :   0.2577159133E-01
 from k-point     11 to k-point     22
Estimated direct band gap   :   0.4664087509    
 at k-point     13

Charges :
 core                        :    68.00000000    
 valence                     :    14.00000000    
 interstitial                :    16.07139694    
 muffin-tins (core leakage)
  species :    1 (Pb)
   atom    1                 :    65.92860306     (   36.89096925    )
 total in muffin-tins        :    65.92860306    
 total calculated charge     :    45.10973291    
 total charge                :    82.00000000    
 error                       :    36.89026709    

Moments :
 interstitial                :   0.6089976405E-25 -0.4773669779E-24 -0.7028558321E-24
 muffin-tins
  species :    1 (Pb)
   atom    1                 :   0.2023398365E-22  0.2614041340E-22 -0.2425208223E-22
 total in muffin-tins        :   0.2023398365E-22  0.2614041340E-22 -0.2425208223E-22
 total moment                :   0.2029488342E-22  0.2566304643E-22 -0.2495493806E-22

RMS change in Kohn-Sham potential (target) :   0.1298033145E-03 (  0.1000000000E-05)
Absolute change in total energy (target)   :   0.4054279719E-01 (  0.1000000000E-03)

Time (CPU seconds) :        34.13

+--------------------+
| Loop number :   19 |
+--------------------+

Energies :
 Fermi                       :      36.6586209066    
 sum of eigenvalues          :     -5326.81290126    
 electron kinetic            :      28200.1809656    
 core electron kinetic       :      24624.9748842    
 Coulomb                     :     -49054.5577386    
 Coulomb potential           :     -32766.7280972    
 nuclear-nuclear             :     -12036.0705396    
 electron-nuclear            :     -41270.2463009    
 Hartree                     :      4251.75910186    
 Madelung                    :     -32671.1936900    
 xc potential                :     -760.265769658    
 xc effective B-field        :    -0.308941394162E-07
 external B-field            :     -0.00000000000    
 exchange                    :     -561.674159691    
 correlation                 :     -10.5645243152    
 electron entropic           :    -0.620215532082E-04
 total energy                :     -21426.6155190    
 (external B-field energy excluded from total)

Density of states at Fermi energy :    21.97265607    
 (states/Hartree/unit cell)

Estimated indirect band gap :   0.2577130880E-01
 from k-point     11 to k-point     22
Estimated direct band gap   :   0.4664083698    
 at k-point     13

Charges :
 core                        :    68.00000000    
 valence                     :    14.00000000    
 interstitial                :    16.07139319    
 muffin-tins (core leakage)
  species :    1 (Pb)
   atom    1                 :    65.92860681     (   36.89096201    )
 total in muffin-tins        :    65.92860681    
 total calculated charge     :    45.10974015    
 total charge                :    82.00000000    
 error                       :    36.89025985    

Moments :
 interstitial                :  -0.1625552386E-23  0.1991785238E-23  0.6956560172E-24
 muffin-tins
  species :    1 (Pb)
   atom    1                 :  -0.1429900323E-22 -0.7991560458E-23 -0.3716192774E-22
 total in muffin-tins        :  -0.1429900323E-22 -0.7991560458E-23 -0.3716192774E-22
 total moment                :  -0.1592455562E-22 -0.5999775219E-23 -0.3646627172E-22

RMS change in Kohn-Sham potential (target) :   0.5764160625E-04 (  0.1000000000E-05)
Absolute change in total energy (target)   :   0.1678742360E-01 (  0.1000000000E-03)

Time (CPU seconds) :        35.90

+--------------------+
| Loop number :   20 |
+--------------------+

Energies :
 Fermi                       :      36.6586318484    
 sum of eigenvalues          :     -5326.81085087    
 electron kinetic            :      28200.1829875    
 core electron kinetic       :      24624.9761593    
 Coulomb                     :     -49054.5574693    
 Coulomb potential           :     -32766.7280714    
 nuclear-nuclear             :     -12036.0705396    
 electron-nuclear            :     -41270.2457880    
 Hartree                     :      4251.75885833    
 Madelung                    :     -32671.1934336    
 xc potential                :     -760.265766967    
 xc effective B-field        :    -0.308941347586E-07
 external B-field            :      0.00000000000    
 exchange                    :     -561.674157676    
 correlation                 :     -10.5645243105    
 electron entropic           :    -0.620215532079E-04
 total energy                :     -21426.6132258    
 (external B-field energy excluded from total)

Density of states at Fermi energy :    21.97265607    
 (states/Hartree/unit cell)

Estimated indirect band gap :   0.2577123100E-01
 from k-point     11 to k-point     22
Estimated direct band gap   :   0.4664084556    
 at k-point     13

Charges :
 core                        :    68.00000000    
 valence                     :    14.00000000    
 interstitial                :    16.07139227    
 muffin-tins (core leakage)
  species :    1 (Pb)
   atom    1                 :    65.92860773     (   36.89095996    )
 total in muffin-tins        :    65.92860773    
 total calculated charge     :    45.10974221    
 total charge                :    82.00000000    
 error                       :    36.89025779    

Moments :
 interstitial                :   0.8801141042E-24 -0.2356956847E-23  0.1022743620E-23
 muffin-tins
  species :    1 (Pb)
   atom    1                 :  -0.4658522289E-22  0.6850367306E-22  0.1740914487E-22
 total in muffin-tins        :  -0.4658522289E-22  0.6850367306E-22  0.1740914487E-22
 total moment                :  -0.4570510879E-22  0.6614671622E-22  0.1843188849E-22

RMS change in Kohn-Sham potential (target) :   0.2722531318E-04 (  0.1000000000E-05)
Absolute change in total energy (target)   :   0.6490114189E-02 (  0.1000000000E-03)

Time (CPU seconds) :        37.66

+--------------------+
| Loop number :   21 |
+--------------------+

Energies :
 Fermi                       :      36.6586352772    
 sum of eigenvalues          :     -5326.81018803    
 electron kinetic            :      28200.1834197    
 core electron kinetic       :      24624.9763255    
 Coulomb                     :     -49054.5570810    
 Coulomb potential           :     -32766.7278464    
 nuclear-nuclear             :     -12036.0705396    
 electron-nuclear            :     -41270.2452365    
 Hartree                     :      4251.75869508    
 Madelung                    :     -32671.1931578    
 xc potential                :     -760.265761342    
 xc effective B-field        :    -0.308941398139E-07
 external B-field            :      0.00000000000    
 exchange                    :     -561.674153468    
 correlation                 :     -10.5645242968    
 electron entropic           :    -0.620215532108E-04
 total energy                :     -21426.6124011    
 (external B-field energy excluded from total)

Density of states at Fermi energy :    21.97265607    
 (states/Hartree/unit cell)

Estimated indirect band gap :   0.2577121908E-01
 from k-point     11 to k-point     22
Estimated direct band gap   :   0.4664086287    
 at k-point     13

Charges :
 core                        :    68.00000000    
 valence                     :    14.00000000    
 interstitial                :    16.07139223    
 muffin-tins (core leakage)
  species :    1 (Pb)
   atom    1                 :    65.92860777     (   36.89095962    )
 total in muffin-tins        :    65.92860777    
 total calculated charge     :    45.10974255    
 total charge                :    82.00000000    
 error                       :    36.89025745    

Moments :
 interstitial                :  -0.4245942144E-24 -0.8893338542E-23 -0.2367836261E-23
 muffin-tins
  species :    1 (Pb)
   atom    1                 :   0.3694868785E-23 -0.2528486872E-22  0.9349235240E-23
 total in muffin-tins        :   0.3694868785E-23 -0.2528486872E-22  0.9349235240E-23
 total moment                :   0.3270274571E-23 -0.3417820726E-22  0.6981398980E-23

RMS change in Kohn-Sham potential (target) :   0.1139090327E-04 (  0.1000000000E-05)
Absolute change in total energy (target)   :   0.2447213985E-02 (  0.1000000000E-03)

Time (CPU seconds) :        39.40

+--------------------+
| Loop number :   22 |
+--------------------+

Energies :
 Fermi                       :      36.6586356283    
 sum of eigenvalues          :     -5326.80999338    
 electron kinetic            :      28200.1835160    
 core electron kinetic       :      24624.9763308    
 Coulomb                     :     -49054.5569255    
 Coulomb potential           :     -32766.7277504    
 nuclear-nuclear             :     -12036.0705396    
 electron-nuclear            :     -41270.2450214    
 Hartree                     :      4251.75863554    
 Madelung                    :     -32671.1930503    
 xc potential                :     -760.265758973    
 xc effective B-field        :    -0.308941433930E-07
 external B-field            :      0.00000000000    
 exchange                    :     -561.674151696    
 correlation                 :     -10.5645242909    
 electron entropic           :    -0.620215532072E-04
 total energy                :     -21426.6121475    
 (external B-field energy excluded from total)

Density of states at Fermi energy :    21.97265607    
 (states/Hartree/unit cell)

Estimated indirect band gap :   0.2577122157E-01
 from k-point     11 to k-point     22
Estimated direct band gap   :   0.4664087047    
 at k-point     13

Charges :
 core                        :    68.00000000    
 valence                     :    14.00000000    
 interstitial                :    16.07139225    
 muffin-tins (core leakage)
  species :    1 (Pb)
   atom    1                 :    65.92860775     (   36.89095953    )
 total in muffin-tins        :    65.92860775    
 total calculated charge     :    45.10974262    
 total charge                :    82.00000000    
 error                       :    36.89025738    

Moments :
 interstitial                :   0.1759791455E-23 -0.1778552917E-23 -0.8452176000E-23
 muffin-tins
  species :    1 (Pb)
   atom    1                 :   0.1118563368E-22  0.8963354424E-23  0.2444619419E-22
 total in muffin-tins        :   0.1118563368E-22  0.8963354424E-23  0.2444619419E-22
 total moment                :   0.1294542513E-22  0.7184801507E-23  0.1599401819E-22

RMS change in Kohn-Sham potential (target) :   0.4355942988E-05 (  0.1000000000E-05)
Absolute change in total energy (target)   :   0.8654000558E-03 (  0.1000000000E-03)

Time (CPU seconds) :        41.16

+--------------------+
| Loop number :   23 |
+--------------------+

Energies :
 Fermi                       :      36.6586352518    
 sum of eigenvalues          :     -5326.80994382    
 electron kinetic            :      28200.1835474    
 core electron kinetic       :      24624.9763303    
 Coulomb                     :     -49054.5568891    
 Coulomb potential           :     -32766.7277328    
 nuclear-nuclear             :     -12036.0705396    
 electron-nuclear            :     -41270.2449663    
 Hartree                     :      4251.75861676    
 Madelung                    :     -32671.1930227    
 xc potential                :     -760.265758444    
 xc effective B-field        :    -0.308941450531E-07
 external B-field            :      0.00000000000    
 exchange                    :     -561.674151300    
 correlation                 :     -10.5645242895    
 electron entropic           :    -0.620215532060E-04
 total energy                :     -21426.6120793    
 (external B-field energy excluded from total)

Density of states at Fermi energy :    21.97265606    
 (states/Hartree/unit cell)

Estimated indirect band gap :   0.2577122684E-01
 from k-point     11 to k-point     22
Estimated direct band gap   :   0.4664087259    
 at k-point     13

Charges :
 core                        :    68.00000000    
 valence                     :    14.00000000    
 interstitial                :    16.07139224    
 muffin-tins (core leakage)
  species :    1 (Pb)
   atom    1                 :    65.92860776     (   36.89095947    )
 total in muffin-tins        :    65.92860776    
 total calculated charge     :    45.10974268    
 total charge                :    82.00000000    
 error                       :    36.89025732    

Moments :
 interstitial                :  -0.3056304457E-23 -0.4506286962E-23 -0.2805322218E-23
 muffin-tins
  species :    1 (Pb)
   atom    1                 :   0.2308253230E-22  0.1142160398E-22  0.6438349156E-22
 total in muffin-tins        :   0.2308253230E-22  0.1142160398E-22  0.6438349156E-22
 total moment                :   0.2002622784E-22  0.6915317022E-23  0.6157816935E-22

RMS change in Kohn-Sham potential (target) :   0.1584322925E-05 (  0.1000000000E-05)
Absolute change in total energy (target)   :   0.2845533018E-03 (  0.1000000000E-03)

Time (CPU seconds) :        42.92

+--------------------+
| Loop number :   24 |
+--------------------+

Energies :
 Fermi                       :      36.6586349584    
 sum of eigenvalues          :     -5326.80993265    
 electron kinetic            :      28200.1835586    
 core electron kinetic       :      24624.9763306    
 Coulomb                     :     -49054.5568864    
 Coulomb potential           :     -32766.7277329    
 nuclear-nuclear             :     -12036.0705396    
 electron-nuclear            :     -41270.2449608    
 Hartree                     :      4251.75861395    
 Madelung                    :     -32671.1930200    
 xc potential                :     -760.265758385    
 xc effective B-field        :    -0.308941458324E-07
 external B-field            :      0.00000000000    
 exchange                    :     -561.674151256    
 correlation                 :     -10.5645242894    
 electron entropic           :    -0.620215532102E-04
 total energy                :     -21426.6120653    
 (external B-field energy excluded from total)

Density of states at Fermi energy :    21.97265607    
 (states/Hartree/unit cell)

Estimated indirect band gap :   0.2577122988E-01
 from k-point     11 to k-point     22
Estimated direct band gap   :   0.4664087321    
 at k-point     13

Charges :
 core                        :    68.00000000    
 valence                     :    14.00000000    
 interstitial                :    16.07139223    
 muffin-tins (core leakage)
  species :    1 (Pb)
   atom    1                 :    65.92860777     (   36.89095945    )
 total in muffin-tins        :    65.92860777    
 total calculated charge     :    45.10974271    
 total charge                :    82.00000000    
 error                       :    36.89025729    

Moments :
 interstitial                :  -0.6588580730E-26 -0.1458199987E-23  0.3568191159E-23
 muffin-tins
  species :    1 (Pb)
   atom    1                 :  -0.1596300521E-23 -0.3590560841E-22  0.9769415845E-22
 total in muffin-tins        :  -0.1596300521E-23 -0.3590560841E-22  0.9769415845E-22
 total moment                :  -0.1602889102E-23 -0.3736380840E-22  0.1012623496E-21

RMS change in Kohn-Sham potential (target) :   0.5502218873E-06 (  0.1000000000E-05)
Absolute change in total energy (target)   :   0.8510609769E-04 (  0.1000000000E-03)

Convergence targets achieved

Time (CPU seconds) :        44.67

+--------------------+
| Loop number :   25 |
+--------------------+

Energies :
 Fermi                       :      36.6586348268    
 sum of eigenvalues          :     -5326.80993059    
 electron kinetic            :      28200.1835617    
 core electron kinetic       :      24624.9763303    
 Coulomb                     :     -49054.5568869    
 Coulomb potential           :     -32766.7277339    
 nuclear-nuclear             :     -12036.0705396    
 electron-nuclear            :     -41270.2449608    
 Hartree                     :      4251.75861342    
 Madelung                    :     -32671.1930200    
 xc potential                :     -760.265758382    
 xc effective B-field        :    -0.308941461234E-07
 external B-field            :      0.00000000000    
 exchange                    :     -561.674151254    
 correlation                 :     -10.5645242894    
 electron entropic           :    -0.620215532078E-04
 total energy                :     -21426.6120627    
 (external B-field energy excluded from total)

Density of states at Fermi energy :    21.97265607    
 (states/Hartree/unit cell)

Estimated indirect band gap :   0.2577123152E-01
 from k-point     11 to k-point     22
Estimated direct band gap   :   0.4664087349    
 at k-point     13

Charges :
 core                        :    68.00000000    
 valence                     :    14.00000000    
 interstitial                :    16.07139223    
 muffin-tins (core leakage)
  species :    1 (Pb)
   atom    1                 :    65.92860777     (   36.89095944    )
 total in muffin-tins        :    65.92860777    
 total calculated charge     :    45.10974272    
 total charge                :    82.00000000    
 error                       :    36.89025728    

Moments :
 interstitial                :  -0.1628033749E-23  0.5830675648E-24 -0.1330685063E-23
 muffin-tins
  species :    1 (Pb)
   atom    1                 :   0.3503046742E-22  0.3856358541E-22 -0.4139209859E-22
 total in muffin-tins        :   0.3503046742E-22  0.3856358541E-22 -0.4139209859E-22
 total moment                :   0.3340243367E-22  0.3914665297E-22 -0.4272278365E-22

+------------------------------+
| Self-consistent loop stopped |
+------------------------------+

Wrote STATE.OUT

Timings (CPU seconds) :
 initialisation                        :         2.92
 Hamiltonian and overlap matrix set up :         1.75
 first-variational eigenvalue equation :         1.19
 second-variational calculation        :        27.06
 charge density calculation            :        11.39
 potential calculation                 :         2.12
 total                                 :        46.44

+----------------------------+
| Elk version 4.0.15 stopped |
+----------------------------+
