+----------------------------+
| Elk version 4.0.15 started |
+----------------------------+

Date (YYYY-MM-DD) : 2019-01-25
Time (hh:mm:ss)   : 08:22:35

All units are atomic (Hartree, Bohr, etc.)

+-------------------------------------------------+
| Ground-state run starting from atomic densities |
+-------------------------------------------------+

Lattice vectors :
   0.000000000      0.5000000000      0.5000000000    
  0.5000000000       0.000000000      0.5000000000    
  0.5000000000      0.5000000000       0.000000000    

Reciprocal lattice vectors :
  -6.283185307       6.283185307       6.283185307    
   6.283185307      -6.283185307       6.283185307    
   6.283185307       6.283185307      -6.283185307    

Unit cell volume      :   0.2500000000    
Brillouin zone volume :    992.2008538    

Species :    1 (Pb)
 parameters loaded from : Pb.in
 name : lead
 nuclear charge    :   -82.00000000    
 electronic charge :    82.00000000    
 atomic mass :    377702.4940    
 muffin-tin radius :   0.3285533906    
 number of radial points in muffin-tin :    697
 number on inner part of muffin-tin    :    469
 atomic positions (lattice), magnetic fields (Cartesian) :
   1 :   0.00000000  0.00000000  0.00000000    0.00000000  0.00000000  0.00000000

Total number of atoms per unit cell :    1

Spin treatment :
 spin-polarised
 spin-orbit coupling
 global magnetic field (Cartesian) :    0.000000000       0.000000000       0.000000000    
 non-collinear magnetisation

Number of Bravais lattice symmetries :   48
Number of crystal symmetries         :   48
Crystal has inversion symmetry
Real symmetric eigensolver will be used

k-point grid :      8     8     8
k-point offset :    0.000000000       0.000000000       0.000000000    
k-point set is reduced with full crystal symmetry group
Total number of k-points :       29

Muffin-tin radius times maximum |G+k| :    8.000000000    
 using average radius
Maximum |G+k| for APW functions       :    24.34916281    
Maximum (1/2)|G+k|^2                  :    296.4408648    
Maximum |G| for potential and density :    48.69832662    
Constant for pseudocharge density :    4
Radial integration step length :    4

G-vector grid sizes :     12    12    12
Number of G-vectors :      531

Maximum angular momentum used for
 APW functions                      :    8
 H and O matrix elements outer loop :    7
 outer part of muffin-tin           :    7
 inner part of muffin-tin           :    3

Total nuclear charge    :   -82.00000000    
Total core charge       :    68.00000000    
Total valence charge    :    14.00000000    
Total excess charge     :    0.000000000    
Total electronic charge :    82.00000000    

Effective Wigner radius, r_s :   0.8995235040E-01

Number of empty states         :    8
Total number of valence states :   32
Total number of core states    :   68

Total number of local-orbitals :   15

Exchange-correlation functional :      3     0     0
 Perdew-Wang/Ceperley-Alder, Phys. Rev. B 45, 13244 (1992)
 Local density approximation (LDA)

Smearing type :    3
 Fermi-Dirac
Smearing width :   0.1000000000E-02
Effective electronic temperature (K) :    315.7750425    

Mixing type :    1
 Adaptive linear mixing

Density and potential initialised from atomic data

+------------------------------+
| Self-consistent loop started |
+------------------------------+

+--------------------+
| Loop number :    1 |
+--------------------+

Energies :
 Fermi                       :      24.4203883265    
 sum of eigenvalues          :     -5865.46276311    
 electron kinetic            :      28456.6690013    
 core electron kinetic       :      25280.4976841    
 Coulomb                     :     -50072.0064409    
 Coulomb potential           :     -33545.4302888    
 nuclear-nuclear             :     -12036.0705396    
 electron-nuclear            :     -42526.4415139    
 Hartree                     :      4490.50561257    
 Madelung                    :     -33299.2912965    
 xc potential                :     -776.701475619    
 xc effective B-field        :    -0.149862651466E-07
 external B-field            :      0.00000000000    
 exchange                    :     -573.969112375    
 correlation                 :     -10.6065194326    
 electron entropic           :    -0.714303030033E-04
 total energy                :     -22199.9131429    
 (external B-field energy excluded from total)

Density of states at Fermi energy :    24.67827484    
 (states/Hartree/unit cell)

Estimated indirect band gap :   0.2612898986E-02
 from k-point      6 to k-point     22
Estimated direct band gap   :   0.4392693241    
 at k-point      6

Charges :
 core                        :    68.00000000    
 valence                     :    14.00000000    
 interstitial                :    14.92502303    
 muffin-tins (core leakage)
  species :    1 (Pb)
   atom    1                 :    67.07497697     (   35.23148177    )
 total in muffin-tins        :    67.07497697    
 total calculated charge     :    46.76944039    
 total charge                :    82.00000000    
 error                       :    35.23055961    

Moments :
 interstitial                :   0.5579187087E-28 -0.9941192782E-28 -0.7093953120E-29
 muffin-tins
  species :    1 (Pb)
   atom    1                 :  -0.5837629323E-22  0.1201476437E-22  0.2484487797E-22
 total in muffin-tins        :  -0.5837629323E-22  0.1201476437E-22  0.2484487797E-22
 total moment                :  -0.5837623744E-22  0.1201466495E-22  0.2484487088E-22

Time (CPU seconds) :         4.37

+--------------------+
| Loop number :    2 |
+--------------------+

Energies :
 Fermi                       :      26.1126511805    
 sum of eigenvalues          :     -5789.58468892    
 electron kinetic            :      28421.3098844    
 core electron kinetic       :      25152.8162349    
 Coulomb                     :     -49930.4668351    
 Coulomb potential           :     -33436.4724460    
 nuclear-nuclear             :     -12036.0705396    
 electron-nuclear            :     -42352.3201450    
 Hartree                     :      4457.92384954    
 Madelung                    :     -33212.2306121    
 xc potential                :     -774.422127390    
 xc effective B-field        :    -0.169620883592E-07
 external B-field            :      0.00000000000    
 exchange                    :     -572.263944861    
 correlation                 :     -10.6007889531    
 electron entropic           :    -0.620664139248E-04
 total energy                :     -22092.0217465    
 (external B-field energy excluded from total)

Density of states at Fermi energy :    21.97586513    
 (states/Hartree/unit cell)

Estimated indirect band gap :   0.2102840036E-01
 from k-point      6 to k-point     22
Estimated direct band gap   :   0.4926211446    
 at k-point      6

Charges :
 core                        :    68.00000000    
 valence                     :    14.00000000    
 interstitial                :    15.07373272    
 muffin-tins (core leakage)
  species :    1 (Pb)
   atom    1                 :    66.92626728     (   35.47284456    )
 total in muffin-tins        :    66.92626728    
 total calculated charge     :    46.52805235    
 total charge                :    82.00000000    
 error                       :    35.47194765    

Moments :
 interstitial                :  -0.5719862719E-25  0.3078640254E-25 -0.3812444665E-25
 muffin-tins
  species :    1 (Pb)
   atom    1                 :  -0.1518770449E-22  0.2670178704E-22 -0.1024103565E-21
 total in muffin-tins        :  -0.1518770449E-22  0.2670178704E-22 -0.1024103565E-21
 total moment                :  -0.1524490311E-22  0.2673257344E-22 -0.1024484809E-21

RMS change in Kohn-Sham potential (target) :    14.81968012     (  0.1000000000E-05)
Absolute change in total energy (target)   :    107.8913964     (  0.1000000000E-03)

Time (CPU seconds) :         6.02

+--------------------+
| Loop number :    3 |
+--------------------+

Energies :
 Fermi                       :      28.2826192763    
 sum of eigenvalues          :     -5692.55897028    
 electron kinetic            :      28371.8742007    
 core electron kinetic       :      25009.8358069    
 Coulomb                     :     -49743.6836651    
 Coulomb potential           :     -33293.0078067    
 nuclear-nuclear             :     -12036.0705396    
 electron-nuclear            :     -42122.2184445    
 Hartree                     :      4414.60531891    
 Madelung                    :     -33097.1797618    
 xc potential                :     -771.425364362    
 xc effective B-field        :    -0.195487172815E-07
 external B-field            :      0.00000000000    
 exchange                    :     -570.022102638    
 correlation                 :     -10.5932289279    
 electron entropic           :    -0.620342125437E-04
 total energy                :     -21952.4248580    
 (external B-field energy excluded from total)

Density of states at Fermi energy :    21.97345584    
 (states/Hartree/unit cell)

Estimated indirect band gap :   0.5468495420E-01
 from k-point      6 to k-point     22
Estimated direct band gap   :   0.5716209813    
 at k-point      6

Charges :
 core                        :    68.00000000    
 valence                     :    14.00000000    
 interstitial                :    15.26948502    
 muffin-tins (core leakage)
  species :    1 (Pb)
   atom    1                 :    66.73051498     (   35.77692554    )
 total in muffin-tins        :    66.73051498    
 total calculated charge     :    46.22393554    
 total charge                :    82.00000000    
 error                       :    35.77606446    

Moments :
 interstitial                :   0.2778439597E-24 -0.3525618150E-24  0.6428650777E-24
 muffin-tins
  species :    1 (Pb)
   atom    1                 :   0.3168867927E-22 -0.1659021007E-22 -0.4621024546E-22
 total in muffin-tins        :   0.3168867927E-22 -0.1659021007E-22 -0.4621024546E-22
 total moment                :   0.3196652323E-22 -0.1694277188E-22 -0.4556738038E-22

RMS change in Kohn-Sham potential (target) :    11.47260093     (  0.1000000000E-05)
Absolute change in total energy (target)   :    166.5697376     (  0.1000000000E-03)

Time (CPU seconds) :         7.78

+--------------------+
| Loop number :    4 |
+--------------------+

Energies :
 Fermi                       :      30.5577328942    
 sum of eigenvalues          :     -5591.35337390    
 electron kinetic            :      28316.2470182    
 core electron kinetic       :      24874.7831763    
 Coulomb                     :     -49543.1739439    
 Coulomb potential           :     -33139.3815325    
 nuclear-nuclear             :     -12036.0705396    
 electron-nuclear            :     -41874.8252762    
 Hartree                     :      4367.72187186    
 Madelung                    :     -32973.4831777    
 xc potential                :     -768.218859573    
 xc effective B-field        :    -0.223332378542E-07
 external B-field            :      0.00000000000    
 exchange                    :     -567.623385274    
 correlation                 :     -10.5850994997    
 electron entropic           :    -0.621528333203E-04
 total energy                :     -21805.1354727    
 (external B-field energy excluded from total)

Density of states at Fermi energy :    21.98325202    
 (states/Hartree/unit cell)

Estimated indirect band gap :   0.4638626630E-01
 from k-point     13 to k-point     22
Estimated direct band gap   :   0.6687873885    
 at k-point      6

Charges :
 core                        :    68.00000000    
 valence                     :    14.00000000    
 interstitial                :    15.48148674    
 muffin-tins (core leakage)
  species :    1 (Pb)
   atom    1                 :    66.51851326     (   36.09021998    )
 total in muffin-tins        :    66.51851326    
 total calculated charge     :    45.91059946    
 total charge                :    82.00000000    
 error                       :    36.08940054    

Moments :
 interstitial                :   0.2994117830E-24  0.8282379039E-24  0.3325835866E-24
 muffin-tins
  species :    1 (Pb)
   atom    1                 :   0.2241579911E-22  0.2128607027E-22 -0.6953509160E-22
 total in muffin-tins        :   0.2241579911E-22  0.2128607027E-22 -0.6953509160E-22
 total moment                :   0.2271521089E-22  0.2211430818E-22 -0.6920250801E-22

RMS change in Kohn-Sham potential (target) :    7.967539019     (  0.1000000000E-05)
Absolute change in total energy (target)   :    188.9318197     (  0.1000000000E-03)

Time (CPU seconds) :         9.54

+--------------------+
| Loop number :    5 |
+--------------------+

Energies :
 Fermi                       :      32.6040296618    
 sum of eigenvalues          :     -5501.11322869    
 electron kinetic            :      28264.6219715    
 core electron kinetic       :      24765.4992212    
 Coulomb                     :     -49361.3806353    
 Coulomb potential           :     -33000.4213459    
 nuclear-nuclear             :     -12036.0705396    
 electron-nuclear            :     -41650.1988456    
 Hartree                     :      4324.88874985    
 Madelung                    :     -32861.1699624    
 xc potential                :     -765.313854286    
 xc effective B-field        :    -0.248361130656E-07
 external B-field            :      0.00000000000    
 exchange                    :     -565.450248624    
 correlation                 :     -10.5776873497    
 electron entropic           :    -0.104500512820E-03
 total energy                :     -21672.7867043    
 (external B-field energy excluded from total)

Density of states at Fermi energy :    35.33450641    
 (states/Hartree/unit cell)

Estimated indirect band gap :   0.1500405220    
 from k-point     14 to k-point     22
Estimated direct band gap   :   0.2725810016    
 at k-point     13

Charges :
 core                        :    68.00000000    
 valence                     :    14.00000000    
 interstitial                :    15.67863139    
 muffin-tins (core leakage)
  species :    1 (Pb)
   atom    1                 :    66.32136861     (   36.36770562    )
 total in muffin-tins        :    66.32136861    
 total calculated charge     :    45.63307466    
 total charge                :    82.00000000    
 error                       :    36.36692534    

Moments :
 interstitial                :  -0.9232652967E-24 -0.4283007072E-24 -0.9854949614E-24
 muffin-tins
  species :    1 (Pb)
   atom    1                 :  -0.1070109049E-22 -0.1952526083E-22  0.6060963704E-23
 total in muffin-tins        :  -0.1070109049E-22 -0.1952526083E-22  0.6060963704E-23
 total moment                :  -0.1162435579E-22 -0.1995356154E-22  0.5075468743E-23

RMS change in Kohn-Sham potential (target) :    4.874652272     (  0.1000000000E-05)
Absolute change in total energy (target)   :    179.5817233     (  0.1000000000E-03)

Time (CPU seconds) :        11.30

+--------------------+
| Loop number :    6 |
+--------------------+

Energies :
 Fermi                       :      34.2037821715    
 sum of eigenvalues          :     -5431.16922971    
 electron kinetic            :      28225.7302694    
 core electron kinetic       :      24690.2129250    
 Coulomb                     :     -49221.6803737    
 Coulomb potential           :     -32893.8260427    
 nuclear-nuclear             :     -12036.0705396    
 electron-nuclear            :     -41477.3936255    
 Hartree                     :      4291.78379141    
 Madelung                    :     -32774.7673523    
 xc potential                :     -763.073456417    
 xc effective B-field        :    -0.282072346118E-07
 external B-field            :     -0.00000000000    
 exchange                    :     -563.774314568    
 correlation                 :     -10.5719281259    
 electron entropic           :    -0.632488811090E-04
 total energy                :     -21570.2964102    
 (external B-field energy excluded from total)

Density of states at Fermi energy :    22.16608362    
 (states/Hartree/unit cell)

Estimated indirect band gap :   0.6905857528E-02
 from k-point     11 to k-point     22
Estimated direct band gap   :   0.3556508224    
 at k-point     13

Charges :
 core                        :    68.00000000    
 valence                     :    14.00000000    
 interstitial                :    15.83698681    
 muffin-tins (core leakage)
  species :    1 (Pb)
   atom    1                 :    66.16301319     (   36.58231588    )
 total in muffin-tins        :    66.16301319    
 total calculated charge     :    45.41843096    
 total charge                :    82.00000000    
 error                       :    36.58156904    

Moments :
 interstitial                :  -0.4114234293E-24  0.5269562967E-24 -0.8145330060E-25
 muffin-tins
  species :    1 (Pb)
   atom    1                 :  -0.3475758389E-22 -0.6052061655E-22 -0.5213355185E-22
 total in muffin-tins        :  -0.3475758389E-22 -0.6052061655E-22 -0.5213355185E-22
 total moment                :  -0.3516900732E-22 -0.5999366026E-22 -0.5221500515E-22

RMS change in Kohn-Sham potential (target) :    2.564160151     (  0.1000000000E-05)
Absolute change in total energy (target)   :    147.3857249     (  0.1000000000E-03)

Time (CPU seconds) :        13.07

+--------------------+
| Loop number :    7 |
+--------------------+

Energies :
 Fermi                       :      35.3048138211    
 sum of eigenvalues          :     -5383.71883929    
 electron kinetic            :      28202.8682783    
 core electron kinetic       :      24647.1066976    
 Coulomb                     :     -49131.2763726    
 Coulomb potential           :     -32824.9808106    
 nuclear-nuclear             :     -12036.0705396    
 electron-nuclear            :     -41365.4308554    
 Hartree                     :      4270.22502239    
 Madelung                    :     -32718.7859673    
 xc potential                :     -761.606306912    
 xc effective B-field        :    -0.295423513213E-07
 external B-field            :      0.00000000000    
 exchange                    :     -562.676837549    
 correlation                 :     -10.5681208504    
 electron entropic           :    -0.620228222477E-04
 total energy                :     -21501.6531147    
 (external B-field energy excluded from total)

Density of states at Fermi energy :    21.97275876    
 (states/Hartree/unit cell)

Estimated indirect band gap :   0.1445901356E-01
 from k-point     11 to k-point     22
Estimated direct band gap   :   0.4105286332    
 at k-point     13

Charges :
 core                        :    68.00000000    
 valence                     :    14.00000000    
 interstitial                :    15.94683948    
 muffin-tins (core leakage)
  species :    1 (Pb)
   atom    1                 :    66.05316052     (   36.72747913    )
 total in muffin-tins        :    66.05316052    
 total calculated charge     :    45.27324508    
 total charge                :    82.00000000    
 error                       :    36.72675492    

Moments :
 interstitial                :  -0.4581260593E-24  0.1624568503E-23 -0.2615453578E-23
 muffin-tins
  species :    1 (Pb)
   atom    1                 :  -0.2955675817E-22  0.2830699798E-22  0.1052871500E-21
 total in muffin-tins        :  -0.2955675817E-22  0.2830699798E-22  0.1052871500E-21
 total moment                :  -0.3001488423E-22  0.2993156648E-22  0.1026716964E-21

RMS change in Kohn-Sham potential (target) :    1.117496843     (  0.1000000000E-05)
Absolute change in total energy (target)   :    105.4897267     (  0.1000000000E-03)

Time (CPU seconds) :        14.82

+--------------------+
| Loop number :    8 |
+--------------------+

Energies :
 Fermi                       :      35.9751928042    
 sum of eigenvalues          :     -5355.41104567    
 electron kinetic            :      28193.5686967    
 core electron kinetic       :      24627.6884602    
 Coulomb                     :     -49082.8444216    
 Coulomb potential           :     -32788.1797134    
 nuclear-nuclear             :     -12036.0705396    
 electron-nuclear            :     -41305.3680507    
 Hartree                     :      4258.59416863    
 Madelung                    :     -32688.7545649    
 xc potential                :     -760.800028938    
 xc effective B-field        :    -0.302793311620E-07
 external B-field            :      0.00000000000    
 exchange                    :     -562.073735754    
 correlation                 :     -10.5660005405    
 electron entropic           :    -0.620215609556E-04
 total energy                :     -21461.9155232    
 (external B-field energy excluded from total)

Density of states at Fermi energy :    21.97265659    
 (states/Hartree/unit cell)

Estimated indirect band gap :   0.1987294353E-01
 from k-point     11 to k-point     22
Estimated direct band gap   :   0.4416407609    
 at k-point     13

Charges :
 core                        :    68.00000000    
 valence                     :    14.00000000    
 interstitial                :    16.01253782    
 muffin-tins (core leakage)
  species :    1 (Pb)
   atom    1                 :    65.98746218     (   36.81307925    )
 total in muffin-tins        :    65.98746218    
 total calculated charge     :    45.18763197    
 total charge                :    82.00000000    
 error                       :    36.81236803    

Moments :
 interstitial                :  -0.7601925131E-24  0.5360761163E-23  0.5878746716E-23
 muffin-tins
  species :    1 (Pb)
   atom    1                 :  -0.8093074245E-24  0.6232288370E-22 -0.7236784507E-22
 total in muffin-tins        :  -0.8093074245E-24  0.6232288370E-22 -0.7236784507E-22
 total moment                :  -0.1569499938E-23  0.6768364487E-22 -0.6648909836E-22

RMS change in Kohn-Sham potential (target) :   0.3786511806     (  0.1000000000E-05)
Absolute change in total energy (target)   :    66.11002318     (  0.1000000000E-03)

Time (CPU seconds) :        16.57

+--------------------+
| Loop number :    9 |
+--------------------+

Energies :
 Fermi                       :      36.3383570978    
 sum of eigenvalues          :     -5340.39403859    
 electron kinetic            :      28192.4401308    
 core electron kinetic       :      24621.8451532    
 Coulomb                     :     -49062.0445485    
 Coulomb potential           :     -32772.3985704    
 nuclear-nuclear             :     -12036.0705396    
 electron-nuclear            :     -41279.5494474    
 Hartree                     :      4253.57543847    
 Madelung                    :     -32675.8452633    
 xc potential                :     -760.435598969    
 xc effective B-field        :    -0.306514839607E-07
 external B-field            :      0.00000000000    
 exchange                    :     -561.801155518    
 correlation                 :     -10.5650212663    
 electron entropic           :    -0.620215536207E-04
 total energy                :     -21441.9706564    
 (external B-field energy excluded from total)

Density of states at Fermi energy :    21.97265612    
 (states/Hartree/unit cell)

Estimated indirect band gap :   0.2308022962E-01
 from k-point     11 to k-point     22
Estimated direct band gap   :   0.4568211555    
 at k-point     13

Charges :
 core                        :    68.00000000    
 valence                     :    14.00000000    
 interstitial                :    16.04640363    
 muffin-tins (core leakage)
  species :    1 (Pb)
   atom    1                 :    65.95359637     (   36.85702137    )
 total in muffin-tins        :    65.95359637    
 total calculated charge     :    45.14368443    
 total charge                :    82.00000000    
 error                       :    36.85631557    

Moments :
 interstitial                :  -0.1157844142E-23 -0.1577461637E-23  0.1346886441E-23
 muffin-tins
  species :    1 (Pb)
   atom    1                 :   0.1523712549E-22  0.6024126055E-22 -0.1574772762E-22
 total in muffin-tins        :   0.1523712549E-22  0.6024126055E-22 -0.1574772762E-22
 total moment                :   0.1407928135E-22  0.5866379891E-22 -0.1440084118E-22

RMS change in Kohn-Sham potential (target) :   0.9346465447E-01 (  0.1000000000E-05)
Absolute change in total energy (target)   :    36.47237258     (  0.1000000000E-03)

Time (CPU seconds) :        18.32

+--------------------+
| Loop number :   10 |
+--------------------+

Energies :
 Fermi                       :      36.5163518811    
 sum of eigenvalues          :     -5333.12082331    
 electron kinetic            :      28194.5738273    
 core electron kinetic       :      24621.7058536    
 Coulomb                     :     -49055.3639742    
 Coulomb potential           :     -32767.3901166    
 nuclear-nuclear             :     -12036.0705396    
 electron-nuclear            :     -41271.1967527    
 Hartree                     :      4251.90331800    
 Madelung                    :     -32671.6689159    
 xc potential                :     -760.304533975    
 xc effective B-field        :    -0.308167675294E-07
 external B-field            :      0.00000000000    
 exchange                    :     -561.703134664    
 correlation                 :     -10.5646544164    
 electron entropic           :    -0.620215533025E-04
 total energy                :     -21433.0579980    
 (external B-field energy excluded from total)

Density of states at Fermi energy :    21.97265609    
 (states/Hartree/unit cell)

Estimated indirect band gap :   0.2469201271E-01
 from k-point     11 to k-point     22
Estimated direct band gap   :   0.4631957275    
 at k-point     13

Charges :
 core                        :    68.00000000    
 valence                     :    14.00000000    
 interstitial                :    16.06161743    
 muffin-tins (core leakage)
  species :    1 (Pb)
   atom    1                 :    65.93838257     (   36.87687437    )
 total in muffin-tins        :    65.93838257    
 total calculated charge     :    45.12382945    
 total charge                :    82.00000000    
 error                       :    36.87617055    

Moments :
 interstitial                :   0.2167949276E-23 -0.4586886663E-23  0.1041056567E-22
 muffin-tins
  species :    1 (Pb)
   atom    1                 :  -0.5188184786E-22  0.4674730892E-23 -0.2358773746E-22
 total in muffin-tins        :  -0.5188184786E-22  0.4674730892E-23 -0.2358773746E-22
 total moment                :  -0.4971389858E-22  0.8784422924E-25 -0.1317717178E-22

RMS change in Kohn-Sham potential (target) :   0.3738195560E-01 (  0.1000000000E-05)
Absolute change in total energy (target)   :    18.03075160     (  0.1000000000E-03)

Time (CPU seconds) :        20.06

+--------------------+
| Loop number :   11 |
+--------------------+

Energies :
 Fermi                       :      36.5972910571    
 sum of eigenvalues          :     -5329.90366579    
 electron kinetic            :      28196.6984422    
 core electron kinetic       :      24622.6457787    
 Coulomb                     :     -49053.9810801    
 Coulomb potential           :     -32766.3341851    
 nuclear-nuclear             :     -12036.0705396    
 electron-nuclear            :     -41269.4868959    
 Hartree                     :      4251.57635536    
 Madelung                    :     -32670.8139875    
 xc potential                :     -760.267922787    
 xc effective B-field        :    -0.308788431745E-07
 external B-field            :      0.00000000000    
 exchange                    :     -561.675760618    
 correlation                 :     -10.5645429842    
 electron entropic           :    -0.620215532451E-04
 total energy                :     -21429.5230035    
 (external B-field energy excluded from total)

Density of states at Fermi energy :    21.97265608    
 (states/Hartree/unit cell)

Estimated indirect band gap :   0.2540228576E-01
 from k-point     11 to k-point     22
Estimated direct band gap   :   0.4655039455    
 at k-point     13

Charges :
 core                        :    68.00000000    
 valence                     :    14.00000000    
 interstitial                :    16.06800493    
 muffin-tins (core leakage)
  species :    1 (Pb)
   atom    1                 :    65.93199507     (   36.88574319    )
 total in muffin-tins        :    65.93199507    
 total calculated charge     :    45.11495989    
 total charge                :    82.00000000    
 error                       :    36.88504011    

Moments :
 interstitial                :   0.3903995191E-23  0.1159172667E-23 -0.5331652728E-23
 muffin-tins
  species :    1 (Pb)
   atom    1                 :   0.2618627330E-23  0.3102526743E-22 -0.6027638208E-22
 total in muffin-tins        :   0.2618627330E-23  0.3102526743E-22 -0.6027638208E-22
 total moment                :   0.6522622521E-23  0.3218444009E-22 -0.6560803481E-22

RMS change in Kohn-Sham potential (target) :   0.2770928714E-01 (  0.1000000000E-05)
Absolute change in total energy (target)   :    8.042682351     (  0.1000000000E-03)

Time (CPU seconds) :        21.81

+--------------------+
| Loop number :   12 |
+--------------------+

Energies :
 Fermi                       :      36.6328156650    
 sum of eigenvalues          :     -5328.36229239    
 electron kinetic            :      28198.2121256    
 core electron kinetic       :      24623.5507707    
 Coulomb                     :     -49053.9923152    
 Coulomb potential           :     -32766.3131914    
 nuclear-nuclear             :     -12036.0705396    
 electron-nuclear            :     -41269.5303599    
 Hartree                     :      4251.60858427    
 Madelung                    :     -32670.8357195    
 xc potential                :     -760.261226595    
 xc effective B-field        :    -0.308968780785E-07
 external B-field            :      0.00000000000    
 exchange                    :     -561.670757545    
 correlation                 :     -10.5645177160    
 electron entropic           :    -0.620215532175E-04
 total energy                :     -21428.0155269    
 (external B-field energy excluded from total)

Density of states at Fermi energy :    21.97265607    
 (states/Hartree/unit cell)

Estimated indirect band gap :   0.2567179401E-01
 from k-point     11 to k-point     22
Estimated direct band gap   :   0.4662249160    
 at k-point     13

Charges :
 core                        :    68.00000000    
 valence                     :    14.00000000    
 interstitial                :    16.07044218    
 muffin-tins (core leakage)
  species :    1 (Pb)
   atom    1                 :    65.92955782     (   36.88938429    )
 total in muffin-tins        :    65.92955782    
 total calculated charge     :    45.11131846    
 total charge                :    82.00000000    
 error                       :    36.88868154    

Moments :
 interstitial                :  -0.4870406577E-24 -0.8380613965E-24 -0.9732561364E-25
 muffin-tins
  species :    1 (Pb)
   atom    1                 :   0.3902100932E-22 -0.3873882227E-22 -0.5978307510E-22
 total in muffin-tins        :   0.3902100932E-22 -0.3873882227E-22 -0.5978307510E-22
 total moment                :   0.3853396866E-22 -0.3957688367E-22 -0.5988040072E-22

RMS change in Kohn-Sham potential (target) :   0.1796143065E-01 (  0.1000000000E-05)
Absolute change in total energy (target)   :    3.518147233     (  0.1000000000E-03)

Time (CPU seconds) :        23.57

+--------------------+
| Loop number :   13 |
+--------------------+

Energies :
 Fermi                       :      36.6480291483    
 sum of eigenvalues          :     -5327.59038583    
 electron kinetic            :      28199.1545258    
 core electron kinetic       :      24624.1946849    
 Coulomb                     :     -49054.2373036    
 Coulomb potential           :     -32766.4827440    
 nuclear-nuclear             :     -12036.0705396    
 electron-nuclear            :     -41269.8507840    
 Hartree                     :      4251.68401999    
 Madelung                    :     -32670.9959316    
 xc potential                :     -760.262167584    
 xc effective B-field        :    -0.308992907496E-07
 external B-field            :      0.00000000000    
 exchange                    :     -561.671463988    
 correlation                 :     -10.5645167136    
 electron entropic           :    -0.620215532099E-04
 total energy                :     -21427.3188205    
 (external B-field energy excluded from total)

Density of states at Fermi energy :    21.97265607    
 (states/Hartree/unit cell)

Estimated indirect band gap :   0.2575601242E-01
 from k-point     11 to k-point     22
Estimated direct band gap   :   0.4664056640    
 at k-point     13

Charges :
 core                        :    68.00000000    
 valence                     :    14.00000000    
 interstitial                :    16.07124615    
 muffin-tins (core leakage)
  species :    1 (Pb)
   atom    1                 :    65.92875385     (   36.89068247    )
 total in muffin-tins        :    65.92875385    
 total calculated charge     :    45.11002007    
 total charge                :    82.00000000    
 error                       :    36.88997993    

Moments :
 interstitial                :  -0.6944658383E-24 -0.2336244660E-23  0.2363046296E-23
 muffin-tins
  species :    1 (Pb)
   atom    1                 :   0.2739672576E-22  0.3824216148E-22  0.3394572582E-22
 total in muffin-tins        :   0.2739672576E-22  0.3824216148E-22  0.3394572582E-22
 total moment                :   0.2670225992E-22  0.3590591682E-22  0.3630877212E-22

RMS change in Kohn-Sham potential (target) :   0.9989874963E-02 (  0.1000000000E-05)
Absolute change in total energy (target)   :    1.576243199     (  0.1000000000E-03)

Time (CPU seconds) :        25.32

+--------------------+
| Loop number :   14 |
+--------------------+

Energies :
 Fermi                       :      36.6544299378    
 sum of eigenvalues          :     -5327.19014924    
 electron kinetic            :      28199.6859331    
 core electron kinetic       :      24624.5865098    
 Coulomb                     :     -49054.4133664    
 Coulomb potential           :     -32766.6122218    
 nuclear-nuclear             :     -12036.0705396    
 electron-nuclear            :     -41270.0734319    
 Hartree                     :      4251.73060501    
 Madelung                    :     -32671.1072555    
 xc potential                :     -760.263860494    
 xc effective B-field        :    -0.308977117065E-07
 external B-field            :      0.00000000000    
 exchange                    :     -561.672731287    
 correlation                 :     -10.5645198057    
 electron entropic           :    -0.620215532087E-04
 total energy                :     -21426.9647464    
 (external B-field energy excluded from total)

Density of states at Fermi energy :    21.97265607    
 (states/Hartree/unit cell)

Estimated indirect band gap :   0.2577513701E-01
 from k-point     11 to k-point     22
Estimated direct band gap   :   0.4664317282    
 at k-point     13

Charges :
 core                        :    68.00000000    
 valence                     :    14.00000000    
 interstitial                :    16.07144582    
 muffin-tins (core leakage)
  species :    1 (Pb)
   atom    1                 :    65.92855418     (   36.89103603    )
 total in muffin-tins        :    65.92855418    
 total calculated charge     :    45.10966636    
 total charge                :    82.00000000    
 error                       :    36.89033364    

Moments :
 interstitial                :  -0.7780208954E-24 -0.6069972460E-23 -0.1244153970E-23
 muffin-tins
  species :    1 (Pb)
   atom    1                 :  -0.1523343009E-22  0.1449104460E-22  0.5241970659E-22
 total in muffin-tins        :  -0.1523343009E-22  0.1449104460E-22  0.5241970659E-22
 total moment                :  -0.1601145099E-22  0.8421072143E-23  0.5117555262E-22

RMS change in Kohn-Sham potential (target) :   0.4950826861E-02 (  0.1000000000E-05)
Absolute change in total energy (target)   :   0.7481348817     (  0.1000000000E-03)

Time (CPU seconds) :        27.07

+--------------------+
| Loop number :   15 |
+--------------------+

Energies :
 Fermi                       :      36.6570530616    
 sum of eigenvalues          :     -5326.98353949    
 electron kinetic            :      28199.9621740    
 core electron kinetic       :      24624.8002034    
 Coulomb                     :     -49054.5021818    
 Coulomb potential           :     -32766.6807760    
 nuclear-nuclear             :     -12036.0705396    
 electron-nuclear            :     -41270.1825084    
 Hartree                     :      4251.75086620    
 Madelung                    :     -32671.1617938    
 xc potential                :     -760.264937450    
 xc effective B-field        :    -0.308959755744E-07
 external B-field            :      0.00000000000    
 exchange                    :     -561.673537158    
 correlation                 :     -10.5645222073    
 electron entropic           :    -0.620215532041E-04
 total energy                :     -21426.7781292    
 (external B-field energy excluded from total)

Density of states at Fermi energy :    21.97265606    
 (states/Hartree/unit cell)

Estimated indirect band gap :   0.2577606907E-01
 from k-point     11 to k-point     22
Estimated direct band gap   :   0.4664246847    
 at k-point     13

Charges :
 core                        :    68.00000000    
 valence                     :    14.00000000    
 interstitial                :    16.07145690    
 muffin-tins (core leakage)
  species :    1 (Pb)
   atom    1                 :    65.92854310     (   36.89106810    )
 total in muffin-tins        :    65.92854310    
 total calculated charge     :    45.10963418    
 total charge                :    82.00000000    
 error                       :    36.89036582    

Moments :
 interstitial                :  -0.2564582273E-23  0.1231352286E-23 -0.5788702453E-24
 muffin-tins
  species :    1 (Pb)
   atom    1                 :  -0.7547686002E-23  0.5395817573E-22  0.4088860520E-22
 total in muffin-tins        :  -0.7547686002E-23  0.5395817573E-22  0.4088860520E-22
 total moment                :  -0.1011226828E-22  0.5518952801E-22  0.4030973495E-22

RMS change in Kohn-Sham potential (target) :   0.2225157410E-02 (  0.1000000000E-05)
Absolute change in total energy (target)   :   0.3736509662     (  0.1000000000E-03)

Time (CPU seconds) :        28.82

+--------------------+
| Loop number :   16 |
+--------------------+

Energies :
 Fermi                       :      36.6580787035    
 sum of eigenvalues          :     -5326.88233289    
 electron kinetic            :      28200.0942929    
 core electron kinetic       :      24624.9054495    
 Coulomb                     :     -49054.5394316    
 Coulomb potential           :     -32766.7111608    
 nuclear-nuclear             :     -12036.0705396    
 electron-nuclear            :     -41270.2266233    
 Hartree                     :      4251.75773120    
 Madelung                    :     -32671.1838512    
 xc potential                :     -760.265464887    
 xc effective B-field        :    -0.308948879929E-07
 external B-field            :      0.00000000000    
 exchange                    :     -561.673931739    
 correlation                 :     -10.5645235028    
 electron entropic           :    -0.620215532024E-04
 total energy                :     -21426.6836560    
 (external B-field energy excluded from total)

Density of states at Fermi energy :    21.97265606    
 (states/Hartree/unit cell)

Estimated indirect band gap :   0.2577391135E-01
 from k-point     11 to k-point     22
Estimated direct band gap   :   0.4664157040    
 at k-point     13

Charges :
 core                        :    68.00000000    
 valence                     :    14.00000000    
 interstitial                :    16.07142955    
 muffin-tins (core leakage)
  species :    1 (Pb)
   atom    1                 :    65.92857045     (   36.89102600    )
 total in muffin-tins        :    65.92857045    
 total calculated charge     :    45.10967623    
 total charge                :    82.00000000    
 error                       :    36.89032377    

Moments :
 interstitial                :   0.8206185413E-24  0.2617758133E-24 -0.1749369019E-24
 muffin-tins
  species :    1 (Pb)
   atom    1                 :  -0.5348687317E-22  0.3343881197E-22  0.3656767480E-22
 total in muffin-tins        :  -0.5348687317E-22  0.3343881197E-22  0.3656767480E-22
 total moment                :  -0.5266625463E-22  0.3370058778E-22  0.3639273790E-22

RMS change in Kohn-Sham potential (target) :   0.9101472247E-03 (  0.1000000000E-05)
Absolute change in total energy (target)   :   0.1878858978     (  0.1000000000E-03)

Time (CPU seconds) :        30.56

+--------------------+
| Loop number :   17 |
+--------------------+

Energies :
 Fermi                       :      36.6584540754    
 sum of eigenvalues          :     -5326.83716155    
 electron kinetic            :      28200.1515700    
 core electron kinetic       :      24624.9517320    
 Coulomb                     :     -49054.5529615    
 Coulomb potential           :     -32766.7230487    
 nuclear-nuclear             :     -12036.0705396    
 electron-nuclear            :     -41270.2417951    
 Hartree                     :      4251.75937320    
 Madelung                    :     -32671.1914371    
 xc potential                :     -760.265682743    
 xc effective B-field        :    -0.308943754042E-07
 external B-field            :      0.00000000000    
 exchange                    :     -561.674094692    
 correlation                 :     -10.5645240739    
 electron entropic           :    -0.620215532105E-04
 total energy                :     -21426.6400723    
 (external B-field energy excluded from total)

Density of states at Fermi energy :    21.97265607    
 (states/Hartree/unit cell)

Estimated indirect band gap :   0.2577234688E-01
 from k-point     11 to k-point     22
Estimated direct band gap   :   0.4664106260    
 at k-point     13

Charges :
 core                        :    68.00000000    
 valence                     :    14.00000000    
 interstitial                :    16.07140766    
 muffin-tins (core leakage)
  species :    1 (Pb)
   atom    1                 :    65.92859234     (   36.89098866    )
 total in muffin-tins        :    65.92859234    
 total calculated charge     :    45.10971354    
 total charge                :    82.00000000    
 error                       :    36.89028646    

Moments :
 interstitial                :   0.8702365194E-24  0.3496396295E-23  0.1142694086E-23
 muffin-tins
  species :    1 (Pb)
   atom    1                 :  -0.1870925178E-22  0.1195206872E-22 -0.9274994357E-22
 total in muffin-tins        :  -0.1870925178E-22  0.1195206872E-22 -0.9274994357E-22
 total moment                :  -0.1783901527E-22  0.1544846502E-22 -0.9160724949E-22

RMS change in Kohn-Sham potential (target) :   0.3420926978E-03 (  0.1000000000E-05)
Absolute change in total energy (target)   :   0.9055515686E-01 (  0.1000000000E-03)

Time (CPU seconds) :        32.31

+--------------------+
| Loop number :   18 |
+--------------------+

Energies :
 Fermi                       :      36.6585813275    
 sum of eigenvalues          :     -5326.81925587    
 electron kinetic            :      28200.1736442    
 core electron kinetic       :      24624.9693676    
 Coulomb                     :     -49054.5570832    
 Coulomb potential           :     -32766.7271448    
 nuclear-nuclear             :     -12036.0705396    
 electron-nuclear            :     -41270.2459424    
 Hartree                     :      4251.75939883    
 Madelung                    :     -32671.1935108    
 xc potential                :     -760.265755274    
 xc effective B-field        :    -0.308941887562E-07
 external B-field            :      0.00000000000    
 exchange                    :     -561.674148937    
 correlation                 :     -10.5645242723    
 electron entropic           :    -0.620215532052E-04
 total energy                :     -21426.6221742    
 (external B-field energy excluded from total)

Density of states at Fermi energy :    21.97265606    
 (states/Hartree/unit cell)

Estimated indirect band gap :   0.2577158993E-01
 from k-point     11 to k-point     22
Estimated direct band gap   :   0.4664087508    
 at k-point     13

Charges :
 core                        :    68.00000000    
 valence                     :    14.00000000    
 interstitial                :    16.07139694    
 muffin-tins (core leakage)
  species :    1 (Pb)
   atom    1                 :    65.92860306     (   36.89096925    )
 total in muffin-tins        :    65.92860306    
 total calculated charge     :    45.10973291    
 total charge                :    82.00000000    
 error                       :    36.89026709    

Moments :
 interstitial                :  -0.1969312378E-23 -0.4564990737E-23  0.6240732263E-23
 muffin-tins
  species :    1 (Pb)
   atom    1                 :   0.2580494009E-22  0.3498237423E-22  0.8636621152E-22
 total in muffin-tins        :   0.2580494009E-22  0.3498237423E-22  0.8636621152E-22
 total moment                :   0.2383562771E-22  0.3041738350E-22  0.9260694379E-22

RMS change in Kohn-Sham potential (target) :   0.1298124267E-03 (  0.1000000000E-05)
Absolute change in total energy (target)   :   0.4053692795E-01 (  0.1000000000E-03)

Time (CPU seconds) :        34.07

+--------------------+
| Loop number :   19 |
+--------------------+

Energies :
 Fermi                       :      36.6586209114    
 sum of eigenvalues          :     -5326.81290120    
 electron kinetic            :      28200.1809656    
 core electron kinetic       :      24624.9748841    
 Coulomb                     :     -49054.5577386    
 Coulomb potential           :     -32766.7280972    
 nuclear-nuclear             :     -12036.0705396    
 electron-nuclear            :     -41270.2463009    
 Hartree                     :      4251.75910188    
 Madelung                    :     -32671.1936900    
 xc potential                :     -760.265769644    
 xc effective B-field        :    -0.308941394673E-07
 external B-field            :      0.00000000000    
 exchange                    :     -561.674159681    
 correlation                 :     -10.5645243151    
 electron entropic           :    -0.620215532086E-04
 total energy                :     -21426.6155190    
 (external B-field energy excluded from total)

Density of states at Fermi energy :    21.97265607    
 (states/Hartree/unit cell)

Estimated indirect band gap :   0.2577130855E-01
 from k-point     11 to k-point     22
Estimated direct band gap   :   0.4664083702    
 at k-point     13

Charges :
 core                        :    68.00000000    
 valence                     :    14.00000000    
 interstitial                :    16.07139319    
 muffin-tins (core leakage)
  species :    1 (Pb)
   atom    1                 :    65.92860681     (   36.89096201    )
 total in muffin-tins        :    65.92860681    
 total calculated charge     :    45.10974016    
 total charge                :    82.00000000    
 error                       :    36.89025984    

Moments :
 interstitial                :  -0.2887354910E-24  0.1837982494E-23  0.2033605916E-23
 muffin-tins
  species :    1 (Pb)
   atom    1                 :  -0.4027345976E-23  0.2174517898E-22 -0.8221194248E-23
 total in muffin-tins        :  -0.4027345976E-23  0.2174517898E-22 -0.8221194248E-23
 total moment                :  -0.4316081467E-23  0.2358316147E-22 -0.6187588332E-23

RMS change in Kohn-Sham potential (target) :   0.5763321490E-04 (  0.1000000000E-05)
Absolute change in total energy (target)   :   0.1678943143E-01 (  0.1000000000E-03)

Time (CPU seconds) :        35.81

+--------------------+
| Loop number :   20 |
+--------------------+

Energies :
 Fermi                       :      36.6586318353    
 sum of eigenvalues          :     -5326.81085166    
 electron kinetic            :      28200.1829870    
 core electron kinetic       :      24624.9761588    
 Coulomb                     :     -49054.5574721    
 Coulomb potential           :     -32766.7280716    
 nuclear-nuclear             :     -12036.0705396    
 electron-nuclear            :     -41270.2457935    
 Hartree                     :      4251.75886097    
 Madelung                    :     -32671.1934363    
 xc potential                :     -760.265766988    
 xc effective B-field        :    -0.308941347364E-07
 external B-field            :     -0.00000000000    
 exchange                    :     -561.674157692    
 correlation                 :     -10.5645243106    
 electron entropic           :    -0.620215531994E-04
 total energy                :     -21426.6132292    
 (external B-field energy excluded from total)

Density of states at Fermi energy :    21.97265606    
 (states/Hartree/unit cell)

Estimated indirect band gap :   0.2577122997E-01
 from k-point     11 to k-point     22
Estimated direct band gap   :   0.4664084553    
 at k-point     13

Charges :
 core                        :    68.00000000    
 valence                     :    14.00000000    
 interstitial                :    16.07139227    
 muffin-tins (core leakage)
  species :    1 (Pb)
   atom    1                 :    65.92860773     (   36.89095996    )
 total in muffin-tins        :    65.92860773    
 total calculated charge     :    45.10974219    
 total charge                :    82.00000000    
 error                       :    36.89025781    

Moments :
 interstitial                :   0.1971782371E-24  0.1223278848E-25  0.2900049796E-23
 muffin-tins
  species :    1 (Pb)
   atom    1                 :  -0.1559144298E-22 -0.1292778098E-22 -0.1079080314E-22
 total in muffin-tins        :  -0.1559144298E-22 -0.1292778098E-22 -0.1079080314E-22
 total moment                :  -0.1539426474E-22 -0.1291554819E-22 -0.7890753344E-23

RMS change in Kohn-Sham potential (target) :   0.2724196847E-04 (  0.1000000000E-05)
Absolute change in total energy (target)   :   0.6487140701E-02 (  0.1000000000E-03)

Time (CPU seconds) :        37.56

+--------------------+
| Loop number :   21 |
+--------------------+

Energies :
 Fermi                       :      36.6586352842    
 sum of eigenvalues          :     -5326.81018736    
 electron kinetic            :      28200.1834200    
 core electron kinetic       :      24624.9763261    
 Coulomb                     :     -49054.5570808    
 Coulomb potential           :     -32766.7278460    
 nuclear-nuclear             :     -12036.0705396    
 electron-nuclear            :     -41270.2452365    
 Hartree                     :      4251.75869528    
 Madelung                    :     -32671.1931578    
 xc potential                :     -760.265761336    
 xc effective B-field        :    -0.308941398296E-07
 external B-field            :      0.00000000000    
 exchange                    :     -561.674153464    
 correlation                 :     -10.5645242968    
 electron entropic           :    -0.620215532082E-04
 total energy                :     -21426.6124006    
 (external B-field energy excluded from total)

Density of states at Fermi energy :    21.97265607    
 (states/Hartree/unit cell)

Estimated indirect band gap :   0.2577122018E-01
 from k-point     11 to k-point     22
Estimated direct band gap   :   0.4664086286    
 at k-point     13

Charges :
 core                        :    68.00000000    
 valence                     :    14.00000000    
 interstitial                :    16.07139223    
 muffin-tins (core leakage)
  species :    1 (Pb)
   atom    1                 :    65.92860777     (   36.89095961    )
 total in muffin-tins        :    65.92860777    
 total calculated charge     :    45.10974255    
 total charge                :    82.00000000    
 error                       :    36.89025745    

Moments :
 interstitial                :  -0.1530880703E-23 -0.2074385320E-23 -0.5069447314E-23
 muffin-tins
  species :    1 (Pb)
   atom    1                 :   0.2239754255E-22 -0.5908706301E-22  0.4402558735E-22
 total in muffin-tins        :   0.2239754255E-22 -0.5908706301E-22  0.4402558735E-22
 total moment                :   0.2086666185E-22 -0.6116144833E-22  0.3895614003E-22

RMS change in Kohn-Sham potential (target) :   0.1138467894E-04 (  0.1000000000E-05)
Absolute change in total energy (target)   :   0.2450376251E-02 (  0.1000000000E-03)

Time (CPU seconds) :        39.30

+--------------------+
| Loop number :   22 |
+--------------------+

Energies :
 Fermi                       :      36.6586356308    
 sum of eigenvalues          :     -5326.80999319    
 electron kinetic            :      28200.1835170    
 core electron kinetic       :      24624.9763317    
 Coulomb                     :     -49054.5569259    
 Coulomb potential           :     -32766.7277512    
 nuclear-nuclear             :     -12036.0705396    
 electron-nuclear            :     -41270.2450214    
 Hartree                     :      4251.75863514    
 Madelung                    :     -32671.1930503    
 xc potential                :     -760.265758969    
 xc effective B-field        :    -0.308941434080E-07
 external B-field            :      0.00000000000    
 exchange                    :     -561.674151693    
 correlation                 :     -10.5645242909    
 electron entropic           :    -0.620215532063E-04
 total energy                :     -21426.6121469    
 (external B-field energy excluded from total)

Density of states at Fermi energy :    21.97265606    
 (states/Hartree/unit cell)

Estimated indirect band gap :   0.2577122204E-01
 from k-point     11 to k-point     22
Estimated direct band gap   :   0.4664087047    
 at k-point     13

Charges :
 core                        :    68.00000000    
 valence                     :    14.00000000    
 interstitial                :    16.07139225    
 muffin-tins (core leakage)
  species :    1 (Pb)
   atom    1                 :    65.92860775     (   36.89095953    )
 total in muffin-tins        :    65.92860775    
 total calculated charge     :    45.10974263    
 total charge                :    82.00000000    
 error                       :    36.89025737    

Moments :
 interstitial                :   0.3182093946E-24  0.1422395202E-24 -0.4176668546E-24
 muffin-tins
  species :    1 (Pb)
   atom    1                 :   0.4444358321E-23  0.2761820478E-22  0.3142160116E-22
 total in muffin-tins        :   0.4444358321E-23  0.2761820478E-22  0.3142160116E-22
 total moment                :   0.4762567715E-23  0.2776044430E-22  0.3100393430E-22

RMS change in Kohn-Sham potential (target) :   0.4353117193E-05 (  0.1000000000E-05)
Absolute change in total energy (target)   :   0.8663072658E-03 (  0.1000000000E-03)

Time (CPU seconds) :        41.06

+--------------------+
| Loop number :   23 |
+--------------------+

Energies :
 Fermi                       :      36.6586352479    
 sum of eigenvalues          :     -5326.80994428    
 electron kinetic            :      28200.1835470    
 core electron kinetic       :      24624.9763301    
 Coulomb                     :     -49054.5568891    
 Coulomb potential           :     -32766.7277328    
 nuclear-nuclear             :     -12036.0705396    
 electron-nuclear            :     -41270.2449663    
 Hartree                     :      4251.75861675    
 Madelung                    :     -32671.1930227    
 xc potential                :     -760.265758447    
 xc effective B-field        :    -0.308941450580E-07
 external B-field            :      0.00000000000    
 exchange                    :     -561.674151302    
 correlation                 :     -10.5645242895    
 electron entropic           :    -0.620215532103E-04
 total energy                :     -21426.6120797    
 (external B-field energy excluded from total)

Density of states at Fermi energy :    21.97265607    
 (states/Hartree/unit cell)

Estimated indirect band gap :   0.2577122611E-01
 from k-point     11 to k-point     22
Estimated direct band gap   :   0.4664087261    
 at k-point     13

Charges :
 core                        :    68.00000000    
 valence                     :    14.00000000    
 interstitial                :    16.07139224    
 muffin-tins (core leakage)
  species :    1 (Pb)
   atom    1                 :    65.92860776     (   36.89095947    )
 total in muffin-tins        :    65.92860776    
 total calculated charge     :    45.10974267    
 total charge                :    82.00000000    
 error                       :    36.89025733    

Moments :
 interstitial                :  -0.1679749455E-23 -0.1415929597E-23  0.1451836714E-23
 muffin-tins
  species :    1 (Pb)
   atom    1                 :  -0.3167763760E-22  0.2523776176E-23  0.1087927066E-21
 total in muffin-tins        :  -0.3167763760E-22  0.2523776176E-23  0.1087927066E-21
 total moment                :  -0.3335738705E-22  0.1107846579E-23  0.1102445433E-21

RMS change in Kohn-Sham potential (target) :   0.1585243756E-05 (  0.1000000000E-05)
Absolute change in total energy (target)   :   0.2837441098E-03 (  0.1000000000E-03)

Time (CPU seconds) :        42.80

+--------------------+
| Loop number :   24 |
+--------------------+

Energies :
 Fermi                       :      36.6586349589    
 sum of eigenvalues          :     -5326.80993270    
 electron kinetic            :      28200.1835589    
 core electron kinetic       :      24624.9763306    
 Coulomb                     :     -49054.5568865    
 Coulomb potential           :     -32766.7277332    
 nuclear-nuclear             :     -12036.0705396    
 electron-nuclear            :     -41270.2449608    
 Hartree                     :      4251.75861380    
 Madelung                    :     -32671.1930200    
 xc potential                :     -760.265758382    
 xc effective B-field        :    -0.308941458411E-07
 external B-field            :      0.00000000000    
 exchange                    :     -561.674151253    
 correlation                 :     -10.5645242894    
 electron entropic           :    -0.620215532012E-04
 total energy                :     -21426.6120652    
 (external B-field energy excluded from total)

Density of states at Fermi energy :    21.97265606    
 (states/Hartree/unit cell)

Estimated indirect band gap :   0.2577123001E-01
 from k-point     11 to k-point     22
Estimated direct band gap   :   0.4664087321    
 at k-point     13

Charges :
 core                        :    68.00000000    
 valence                     :    14.00000000    
 interstitial                :    16.07139223    
 muffin-tins (core leakage)
  species :    1 (Pb)
   atom    1                 :    65.92860777     (   36.89095945    )
 total in muffin-tins        :    65.92860777    
 total calculated charge     :    45.10974271    
 total charge                :    82.00000000    
 error                       :    36.89025729    

Moments :
 interstitial                :  -0.1383641535E-23 -0.1664799042E-23  0.2919991522E-23
 muffin-tins
  species :    1 (Pb)
   atom    1                 :  -0.6118672718E-23  0.1698758599E-22 -0.3805871045E-22
 total in muffin-tins        :  -0.6118672718E-23  0.1698758599E-22 -0.3805871045E-22
 total moment                :  -0.7502314253E-23  0.1532278695E-22 -0.3513871893E-22

RMS change in Kohn-Sham potential (target) :   0.5481838794E-06 (  0.1000000000E-05)
Absolute change in total energy (target)   :   0.8545547826E-04 (  0.1000000000E-03)

Convergence targets achieved

Time (CPU seconds) :        44.54

+--------------------+
| Loop number :   25 |
+--------------------+

Energies :
 Fermi                       :      36.6586348226    
 sum of eigenvalues          :     -5326.80993090    
 electron kinetic            :      28200.1835609    
 core electron kinetic       :      24624.9763297    
 Coulomb                     :     -49054.5568867    
 Coulomb potential           :     -32766.7277334    
 nuclear-nuclear             :     -12036.0705396    
 electron-nuclear            :     -41270.2449608    
 Hartree                     :      4251.75861367    
 Madelung                    :     -32671.1930200    
 xc potential                :     -760.265758386    
 xc effective B-field        :    -0.308941461184E-07
 external B-field            :      0.00000000000    
 exchange                    :     -561.674151256    
 correlation                 :     -10.5645242894    
 electron entropic           :    -0.620215532068E-04
 total energy                :     -21426.6120633    
 (external B-field energy excluded from total)

Density of states at Fermi energy :    21.97265607    
 (states/Hartree/unit cell)

Estimated indirect band gap :   0.2577123130E-01
 from k-point     11 to k-point     22
Estimated direct band gap   :   0.4664087348    
 at k-point     13

Charges :
 core                        :    68.00000000    
 valence                     :    14.00000000    
 interstitial                :    16.07139223    
 muffin-tins (core leakage)
  species :    1 (Pb)
   atom    1                 :    65.92860777     (   36.89095944    )
 total in muffin-tins        :    65.92860777    
 total calculated charge     :    45.10974271    
 total charge                :    82.00000000    
 error                       :    36.89025729    

Moments :
 interstitial                :  -0.3321088004E-23 -0.4535357556E-23  0.2232235757E-23
 muffin-tins
  species :    1 (Pb)
   atom    1                 :   0.1002972090E-22  0.5694963781E-22 -0.2553416448E-22
 total in muffin-tins        :   0.1002972090E-22  0.5694963781E-22 -0.2553416448E-22
 total moment                :   0.6708632900E-23  0.5241428025E-22 -0.2330192872E-22

+------------------------------+
| Self-consistent loop stopped |
+------------------------------+

Wrote STATE.OUT

Timings (CPU seconds) :
 initialisation                        :         2.95
 Hamiltonian and overlap matrix set up :         1.72
 first-variational eigenvalue equation :         1.19
 second-variational calculation        :        26.98
 charge density calculation            :        11.33
 potential calculation                 :         2.13
 total                                 :        46.30

+----------------------------+
| Elk version 4.0.15 stopped |
+----------------------------+
