+----------------------------+
| Elk version 4.0.15 started |
+----------------------------+

Date (YYYY-MM-DD) : 2019-01-25
Time (hh:mm:ss)   : 08:29:36

All units are atomic (Hartree, Bohr, etc.)

+-------------------------------------------------+
| Ground-state run starting from atomic densities |
+-------------------------------------------------+

Lattice vectors :
   0.000000000      0.5000000000      0.5000000000    
  0.5000000000       0.000000000      0.5000000000    
  0.5000000000      0.5000000000       0.000000000    

Reciprocal lattice vectors :
  -6.283185307       6.283185307       6.283185307    
   6.283185307      -6.283185307       6.283185307    
   6.283185307       6.283185307      -6.283185307    

Unit cell volume      :   0.2500000000    
Brillouin zone volume :    992.2008538    

Species :    1 (Pb)
 parameters loaded from : Pb.in
 name : lead
 nuclear charge    :   -82.00000000    
 electronic charge :    82.00000000    
 atomic mass :    377702.4940    
 muffin-tin radius :   0.3285533906    
 number of radial points in muffin-tin :    697
 number on inner part of muffin-tin    :    469
 atomic positions (lattice), magnetic fields (Cartesian) :
   1 :   0.00000000  0.00000000  0.00000000    0.00000000  0.00000000  0.00000000

Total number of atoms per unit cell :    1

Spin treatment :
 spin-polarised
 spin-orbit coupling
 global magnetic field (Cartesian) :    0.000000000       0.000000000       0.000000000    
 non-collinear magnetisation

Number of Bravais lattice symmetries :   48
Number of crystal symmetries         :   48
Crystal has inversion symmetry
Real symmetric eigensolver will be used

k-point grid :      8     8     8
k-point offset :    0.000000000       0.000000000       0.000000000    
k-point set is reduced with full crystal symmetry group
Total number of k-points :       29

Muffin-tin radius times maximum |G+k| :    8.000000000    
 using average radius
Maximum |G+k| for APW functions       :    24.34916281    
Maximum (1/2)|G+k|^2                  :    296.4408648    
Maximum |G| for potential and density :    48.69832662    
Constant for pseudocharge density :    4
Radial integration step length :    4

G-vector grid sizes :     12    12    12
Number of G-vectors :      531

Maximum angular momentum used for
 APW functions                      :    8
 H and O matrix elements outer loop :    7
 outer part of muffin-tin           :    7
 inner part of muffin-tin           :    3

Total nuclear charge    :   -82.00000000    
Total core charge       :    68.00000000    
Total valence charge    :    14.00000000    
Total excess charge     :    0.000000000    
Total electronic charge :    82.00000000    

Effective Wigner radius, r_s :   0.8995235040E-01

Number of empty states         :    8
Total number of valence states :   32
Total number of core states    :   68

Total number of local-orbitals :   15

Exchange-correlation functional :      3     0     0
 Perdew-Wang/Ceperley-Alder, Phys. Rev. B 45, 13244 (1992)
 Local density approximation (LDA)

Smearing type :    3
 Fermi-Dirac
Smearing width :   0.1000000000E-02
Effective electronic temperature (K) :    315.7750425    

Mixing type :    1
 Adaptive linear mixing

Density and potential initialised from atomic data

+------------------------------+
| Self-consistent loop started |
+------------------------------+

+--------------------+
| Loop number :    1 |
+--------------------+

Energies :
 Fermi                       :      24.4203883265    
 sum of eigenvalues          :     -5865.46276311    
 electron kinetic            :      28456.6690013    
 core electron kinetic       :      25280.4976841    
 Coulomb                     :     -50072.0064409    
 Coulomb potential           :     -33545.4302888    
 nuclear-nuclear             :     -12036.0705396    
 electron-nuclear            :     -42526.4415139    
 Hartree                     :      4490.50561257    
 Madelung                    :     -33299.2912965    
 xc potential                :     -776.701475619    
 xc effective B-field        :    -0.149862651466E-07
 external B-field            :      0.00000000000    
 exchange                    :     -573.969112375    
 correlation                 :     -10.6065194326    
 electron entropic           :    -0.714303030033E-04
 total energy                :     -22199.9131429    
 (external B-field energy excluded from total)

Density of states at Fermi energy :    24.67827484    
 (states/Hartree/unit cell)

Estimated indirect band gap :   0.2612898986E-02
 from k-point      6 to k-point     22
Estimated direct band gap   :   0.4392693241    
 at k-point      6

Charges :
 core                        :    68.00000000    
 valence                     :    14.00000000    
 interstitial                :    14.92502303    
 muffin-tins (core leakage)
  species :    1 (Pb)
   atom    1                 :    67.07497697     (   35.23148177    )
 total in muffin-tins        :    67.07497697    
 total calculated charge     :    46.76944039    
 total charge                :    82.00000000    
 error                       :    35.23055961    

Moments :
 interstitial                :   0.8544451839E-29  0.9430911774E-28 -0.9069806327E-28
 muffin-tins
  species :    1 (Pb)
   atom    1                 :  -0.2267106759E-22  0.6188680342E-23 -0.7586992932E-22
 total in muffin-tins        :  -0.2267106759E-22  0.6188680342E-23 -0.7586992932E-22
 total moment                :  -0.2267105905E-22  0.6188774651E-23 -0.7587002002E-22

Time (CPU seconds) :         4.35

+--------------------+
| Loop number :    2 |
+--------------------+

Energies :
 Fermi                       :      26.1126511806    
 sum of eigenvalues          :     -5789.58468892    
 electron kinetic            :      28421.3098844    
 core electron kinetic       :      25152.8162349    
 Coulomb                     :     -49930.4668351    
 Coulomb potential           :     -33436.4724459    
 nuclear-nuclear             :     -12036.0705396    
 electron-nuclear            :     -42352.3201450    
 Hartree                     :      4457.92384956    
 Madelung                    :     -33212.2306121    
 xc potential                :     -774.422127390    
 xc effective B-field        :    -0.169620883612E-07
 external B-field            :      0.00000000000    
 exchange                    :     -572.263944862    
 correlation                 :     -10.6007889531    
 electron entropic           :    -0.620664139252E-04
 total energy                :     -22092.0217465    
 (external B-field energy excluded from total)

Density of states at Fermi energy :    21.97586513    
 (states/Hartree/unit cell)

Estimated indirect band gap :   0.2102840037E-01
 from k-point      6 to k-point     22
Estimated direct band gap   :   0.4926211446    
 at k-point      6

Charges :
 core                        :    68.00000000    
 valence                     :    14.00000000    
 interstitial                :    15.07373272    
 muffin-tins (core leakage)
  species :    1 (Pb)
   atom    1                 :    66.92626728     (   35.47284456    )
 total in muffin-tins        :    66.92626728    
 total calculated charge     :    46.52805235    
 total charge                :    82.00000000    
 error                       :    35.47194765    

Moments :
 interstitial                :   0.5706253923E-27  0.1158793858E-24  0.3013671153E-25
 muffin-tins
  species :    1 (Pb)
   atom    1                 :   0.8964715183E-23 -0.7984548257E-23  0.3703178973E-22
 total in muffin-tins        :   0.8964715183E-23 -0.7984548257E-23  0.3703178973E-22
 total moment                :   0.8965285809E-23 -0.7868668871E-23  0.3706192644E-22

RMS change in Kohn-Sham potential (target) :    14.81968012     (  0.1000000000E-05)
Absolute change in total energy (target)   :    107.8913963     (  0.1000000000E-03)

Time (CPU seconds) :         6.01

+--------------------+
| Loop number :    3 |
+--------------------+

Energies :
 Fermi                       :      28.2826192760    
 sum of eigenvalues          :     -5692.55897028    
 electron kinetic            :      28371.8742007    
 core electron kinetic       :      25009.8358068    
 Coulomb                     :     -49743.6836651    
 Coulomb potential           :     -33293.0078066    
 nuclear-nuclear             :     -12036.0705396    
 electron-nuclear            :     -42122.2184445    
 Hartree                     :      4414.60531892    
 Madelung                    :     -33097.1797618    
 xc potential                :     -771.425364361    
 xc effective B-field        :    -0.195487172735E-07
 external B-field            :      0.00000000000    
 exchange                    :     -570.022102637    
 correlation                 :     -10.5932289279    
 electron entropic           :    -0.620342125452E-04
 total energy                :     -21952.4248580    
 (external B-field energy excluded from total)

Density of states at Fermi energy :    21.97345584    
 (states/Hartree/unit cell)

Estimated indirect band gap :   0.5468495418E-01
 from k-point      6 to k-point     22
Estimated direct band gap   :   0.5716209813    
 at k-point      6

Charges :
 core                        :    68.00000000    
 valence                     :    14.00000000    
 interstitial                :    15.26948502    
 muffin-tins (core leakage)
  species :    1 (Pb)
   atom    1                 :    66.73051498     (   35.77692554    )
 total in muffin-tins        :    66.73051498    
 total calculated charge     :    46.22393554    
 total charge                :    82.00000000    
 error                       :    35.77606446    

Moments :
 interstitial                :   0.1171992002E-24 -0.2861381117E-25  0.1586552841E-24
 muffin-tins
  species :    1 (Pb)
   atom    1                 :  -0.3490855871E-22  0.2984316704E-22  0.4057442191E-22
 total in muffin-tins        :  -0.3490855871E-22  0.2984316704E-22  0.4057442191E-22
 total moment                :  -0.3479135951E-22  0.2981455323E-22  0.4073307719E-22

RMS change in Kohn-Sham potential (target) :    11.47260093     (  0.1000000000E-05)
Absolute change in total energy (target)   :    166.5697376     (  0.1000000000E-03)

Time (CPU seconds) :         7.76

+--------------------+
| Loop number :    4 |
+--------------------+

Energies :
 Fermi                       :      30.5577328937    
 sum of eigenvalues          :     -5591.35337392    
 electron kinetic            :      28316.2470178    
 core electron kinetic       :      24874.7831759    
 Coulomb                     :     -49543.1739437    
 Coulomb potential           :     -33139.3815321    
 nuclear-nuclear             :     -12036.0705396    
 electron-nuclear            :     -41874.8252762    
 Hartree                     :      4367.72187204    
 Madelung                    :     -32973.4831777    
 xc potential                :     -768.218859571    
 xc effective B-field        :    -0.223332378554E-07
 external B-field            :      0.00000000000    
 exchange                    :     -567.623385273    
 correlation                 :     -10.5850994997    
 electron entropic           :    -0.621528333191E-04
 total energy                :     -21805.1354729    
 (external B-field energy excluded from total)

Density of states at Fermi energy :    21.98325202    
 (states/Hartree/unit cell)

Estimated indirect band gap :   0.4638626634E-01
 from k-point     13 to k-point     22
Estimated direct band gap   :   0.6687873885    
 at k-point      6

Charges :
 core                        :    68.00000000    
 valence                     :    14.00000000    
 interstitial                :    15.48148674    
 muffin-tins (core leakage)
  species :    1 (Pb)
   atom    1                 :    66.51851326     (   36.09021998    )
 total in muffin-tins        :    66.51851326    
 total calculated charge     :    45.91059946    
 total charge                :    82.00000000    
 error                       :    36.08940054    

Moments :
 interstitial                :   0.6182514222E-24  0.4783192242E-25  0.7743300414E-25
 muffin-tins
  species :    1 (Pb)
   atom    1                 :  -0.3231731582E-22  0.4493672604E-22  0.6665099568E-22
 total in muffin-tins        :  -0.3231731582E-22  0.4493672604E-22  0.6665099568E-22
 total moment                :  -0.3169906440E-22  0.4498455796E-22  0.6672842869E-22

RMS change in Kohn-Sham potential (target) :    7.967539018     (  0.1000000000E-05)
Absolute change in total energy (target)   :    188.9318195     (  0.1000000000E-03)

Time (CPU seconds) :         9.53

+--------------------+
| Loop number :    5 |
+--------------------+

Energies :
 Fermi                       :      32.6040296614    
 sum of eigenvalues          :     -5501.11322869    
 electron kinetic            :      28264.6219706    
 core electron kinetic       :      24765.4992208    
 Coulomb                     :     -49361.3806348    
 Coulomb potential           :     -33000.4213450    
 nuclear-nuclear             :     -12036.0705396    
 electron-nuclear            :     -41650.1988456    
 Hartree                     :      4324.88875029    
 Madelung                    :     -32861.1699624    
 xc potential                :     -765.313854293    
 xc effective B-field        :    -0.248361130417E-07
 external B-field            :      0.00000000000    
 exchange                    :     -565.450248629    
 correlation                 :     -10.5776873497    
 electron entropic           :    -0.104500512884E-03
 total energy                :     -21672.7867047    
 (external B-field energy excluded from total)

Density of states at Fermi energy :    35.33450644    
 (states/Hartree/unit cell)

Estimated indirect band gap :   0.1500405220    
 from k-point     14 to k-point     22
Estimated direct band gap   :   0.2725810016    
 at k-point     13

Charges :
 core                        :    68.00000000    
 valence                     :    14.00000000    
 interstitial                :    15.67863139    
 muffin-tins (core leakage)
  species :    1 (Pb)
   atom    1                 :    66.32136861     (   36.36770562    )
 total in muffin-tins        :    66.32136861    
 total calculated charge     :    45.63307464    
 total charge                :    82.00000000    
 error                       :    36.36692536    

Moments :
 interstitial                :  -0.2449684437E-24  0.4537370791E-24 -0.8779628732E-24
 muffin-tins
  species :    1 (Pb)
   atom    1                 :   0.7197915853E-23  0.4972821874E-22 -0.1175936804E-22
 total in muffin-tins        :   0.7197915853E-23  0.4972821874E-22 -0.1175936804E-22
 total moment                :   0.6952947410E-23  0.5018195582E-22 -0.1263733091E-22

RMS change in Kohn-Sham potential (target) :    4.874652279     (  0.1000000000E-05)
Absolute change in total energy (target)   :    179.5817230     (  0.1000000000E-03)

Time (CPU seconds) :        11.29

+--------------------+
| Loop number :    6 |
+--------------------+

Energies :
 Fermi                       :      34.2037821761    
 sum of eigenvalues          :     -5431.16922935    
 electron kinetic            :      28225.7302696    
 core electron kinetic       :      24690.2129254    
 Coulomb                     :     -49221.6803763    
 Coulomb potential           :     -32893.8260425    
 nuclear-nuclear             :     -12036.0705396    
 electron-nuclear            :     -41477.3936310    
 Hartree                     :      4291.78379425    
 Madelung                    :     -32774.7673551    
 xc potential                :     -763.073456417    
 xc effective B-field        :    -0.282072345954E-07
 external B-field            :      0.00000000000    
 exchange                    :     -563.774314568    
 correlation                 :     -10.5719281259    
 electron entropic           :    -0.632488805767E-04
 total energy                :     -21570.2964127    
 (external B-field energy excluded from total)

Density of states at Fermi energy :    22.16608353    
 (states/Hartree/unit cell)

Estimated indirect band gap :   0.6905858033E-02
 from k-point     11 to k-point     22
Estimated direct band gap   :   0.3556508225    
 at k-point     13

Charges :
 core                        :    68.00000000    
 valence                     :    14.00000000    
 interstitial                :    15.83698681    
 muffin-tins (core leakage)
  species :    1 (Pb)
   atom    1                 :    66.16301319     (   36.58231588    )
 total in muffin-tins        :    66.16301319    
 total calculated charge     :    45.41843096    
 total charge                :    82.00000000    
 error                       :    36.58156904    

Moments :
 interstitial                :   0.2489165065E-24 -0.1901360690E-23 -0.1465236547E-23
 muffin-tins
  species :    1 (Pb)
   atom    1                 :   0.1621328720E-22  0.4112253087E-23  0.6272785014E-22
 total in muffin-tins        :   0.1621328720E-22  0.4112253087E-23  0.6272785014E-22
 total moment                :   0.1646220370E-22  0.2210892398E-23  0.6126261359E-22

RMS change in Kohn-Sham potential (target) :    2.564160149     (  0.1000000000E-05)
Absolute change in total energy (target)   :    147.3857228     (  0.1000000000E-03)

Time (CPU seconds) :        13.04

+--------------------+
| Loop number :    7 |
+--------------------+

Energies :
 Fermi                       :      35.3048138237    
 sum of eigenvalues          :     -5383.71883905    
 electron kinetic            :      28202.8682782    
 core electron kinetic       :      24647.1066976    
 Coulomb                     :     -49131.2763724    
 Coulomb potential           :     -32824.9808103    
 nuclear-nuclear             :     -12036.0705396    
 electron-nuclear            :     -41365.4308554    
 Hartree                     :      4270.22502253    
 Madelung                    :     -32718.7859673    
 xc potential                :     -761.606306919    
 xc effective B-field        :    -0.295423513093E-07
 external B-field            :      0.00000000000    
 exchange                    :     -562.676837554    
 correlation                 :     -10.5681208504    
 electron entropic           :    -0.620228222440E-04
 total energy                :     -21501.6531146    
 (external B-field energy excluded from total)

Density of states at Fermi energy :    21.97275876    
 (states/Hartree/unit cell)

Estimated indirect band gap :   0.1445901388E-01
 from k-point     11 to k-point     22
Estimated direct band gap   :   0.4105286332    
 at k-point     13

Charges :
 core                        :    68.00000000    
 valence                     :    14.00000000    
 interstitial                :    15.94683949    
 muffin-tins (core leakage)
  species :    1 (Pb)
   atom    1                 :    66.05316051     (   36.72747913    )
 total in muffin-tins        :    66.05316051    
 total calculated charge     :    45.27324507    
 total charge                :    82.00000000    
 error                       :    36.72675493    

Moments :
 interstitial                :   0.3144168304E-24  0.1652529155E-23 -0.8463902609E-24
 muffin-tins
  species :    1 (Pb)
   atom    1                 :   0.3526930272E-23 -0.9384846258E-23  0.1650643810E-22
 total in muffin-tins        :   0.3526930272E-23 -0.9384846258E-23  0.1650643810E-22
 total moment                :   0.3841347102E-23 -0.7732317102E-23  0.1566004784E-22

RMS change in Kohn-Sham potential (target) :    1.117496848     (  0.1000000000E-05)
Absolute change in total energy (target)   :    105.4897287     (  0.1000000000E-03)

Time (CPU seconds) :        14.80

+--------------------+
| Loop number :    8 |
+--------------------+

Energies :
 Fermi                       :      35.9751928094    
 sum of eigenvalues          :     -5355.41104517    
 electron kinetic            :      28193.5686976    
 core electron kinetic       :      24627.6884604    
 Coulomb                     :     -49082.8444218    
 Coulomb potential           :     -32788.1797139    
 nuclear-nuclear             :     -12036.0705396    
 electron-nuclear            :     -41305.3680507    
 Hartree                     :      4258.59416841    
 Madelung                    :     -32688.7545649    
 xc potential                :     -760.800028929    
 xc effective B-field        :    -0.302793311980E-07
 external B-field            :      0.00000000000    
 exchange                    :     -562.073735747    
 correlation                 :     -10.5660005404    
 electron entropic           :    -0.620215609600E-04
 total energy                :     -21461.9155225    
 (external B-field energy excluded from total)

Density of states at Fermi energy :    21.97265659    
 (states/Hartree/unit cell)

Estimated indirect band gap :   0.1987294426E-01
 from k-point     11 to k-point     22
Estimated direct band gap   :   0.4416407608    
 at k-point     13

Charges :
 core                        :    68.00000000    
 valence                     :    14.00000000    
 interstitial                :    16.01253781    
 muffin-tins (core leakage)
  species :    1 (Pb)
   atom    1                 :    65.98746219     (   36.81307925    )
 total in muffin-tins        :    65.98746219    
 total calculated charge     :    45.18763198    
 total charge                :    82.00000000    
 error                       :    36.81236802    

Moments :
 interstitial                :  -0.2086894551E-23  0.6573643291E-25 -0.2338242724E-23
 muffin-tins
  species :    1 (Pb)
   atom    1                 :   0.6675138520E-23 -0.4070702795E-22 -0.4227314650E-22
 total in muffin-tins        :   0.6675138520E-23 -0.4070702795E-22 -0.4227314650E-22
 total moment                :   0.4588243969E-23 -0.4064129152E-22 -0.4461138922E-22

RMS change in Kohn-Sham potential (target) :   0.3786511685     (  0.1000000000E-05)
Absolute change in total energy (target)   :    66.11002431     (  0.1000000000E-03)

Time (CPU seconds) :        16.55

+--------------------+
| Loop number :    9 |
+--------------------+

Energies :
 Fermi                       :      36.3383570957    
 sum of eigenvalues          :     -5340.39403878    
 electron kinetic            :      28192.4401307    
 core electron kinetic       :      24621.8451532    
 Coulomb                     :     -49062.0445458    
 Coulomb potential           :     -32772.3985705    
 nuclear-nuclear             :     -12036.0705396    
 electron-nuclear            :     -41279.5494419    
 Hartree                     :      4253.57543568    
 Madelung                    :     -32675.8452605    
 xc potential                :     -760.435598960    
 xc effective B-field        :    -0.306514839719E-07
 external B-field            :      0.00000000000    
 exchange                    :     -561.801155511    
 correlation                 :     -10.5650212663    
 electron entropic           :    -0.620215536211E-04
 total energy                :     -21441.9706538    
 (external B-field energy excluded from total)

Density of states at Fermi energy :    21.97265612    
 (states/Hartree/unit cell)

Estimated indirect band gap :   0.2308022937E-01
 from k-point     11 to k-point     22
Estimated direct band gap   :   0.4568211556    
 at k-point     13

Charges :
 core                        :    68.00000000    
 valence                     :    14.00000000    
 interstitial                :    16.04640362    
 muffin-tins (core leakage)
  species :    1 (Pb)
   atom    1                 :    65.95359638     (   36.85702137    )
 total in muffin-tins        :    65.95359638    
 total calculated charge     :    45.14368444    
 total charge                :    82.00000000    
 error                       :    36.85631556    

Moments :
 interstitial                :  -0.1357432543E-23  0.2158114700E-23  0.9244926787E-24
 muffin-tins
  species :    1 (Pb)
   atom    1                 :   0.4528069700E-22 -0.4366294299E-22 -0.1542957423E-22
 total in muffin-tins        :   0.4528069700E-22 -0.4366294299E-22 -0.1542957423E-22
 total moment                :   0.4392326446E-22 -0.4150482829E-22 -0.1450508155E-22

RMS change in Kohn-Sham potential (target) :   0.9346464795E-01 (  0.1000000000E-05)
Absolute change in total energy (target)   :    36.47237475     (  0.1000000000E-03)

Time (CPU seconds) :        18.32

+--------------------+
| Loop number :   10 |
+--------------------+

Energies :
 Fermi                       :      36.5163518754    
 sum of eigenvalues          :     -5333.12082380    
 electron kinetic            :      28194.5738281    
 core electron kinetic       :      24621.7058542    
 Coulomb                     :     -49055.3639748    
 Coulomb potential           :     -32767.3901179    
 nuclear-nuclear             :     -12036.0705396    
 electron-nuclear            :     -41271.1967527    
 Hartree                     :      4251.90331738    
 Madelung                    :     -32671.6689159    
 xc potential                :     -760.304533975    
 xc effective B-field        :    -0.308167675546E-07
 external B-field            :      0.00000000000    
 exchange                    :     -561.703134664    
 correlation                 :     -10.5646544164    
 electron entropic           :    -0.620215533007E-04
 total energy                :     -21433.0579978    
 (external B-field energy excluded from total)

Density of states at Fermi energy :    21.97265609    
 (states/Hartree/unit cell)

Estimated indirect band gap :   0.2469201180E-01
 from k-point     11 to k-point     22
Estimated direct band gap   :   0.4631957276    
 at k-point     13

Charges :
 core                        :    68.00000000    
 valence                     :    14.00000000    
 interstitial                :    16.06161742    
 muffin-tins (core leakage)
  species :    1 (Pb)
   atom    1                 :    65.93838258     (   36.87687437    )
 total in muffin-tins        :    65.93838258    
 total calculated charge     :    45.12382947    
 total charge                :    82.00000000    
 error                       :    36.87617053    

Moments :
 interstitial                :   0.1929636107E-23  0.4716611619E-23  0.1094018383E-22
 muffin-tins
  species :    1 (Pb)
   atom    1                 :   0.9566992109E-23  0.1319510972E-22 -0.1020447246E-21
 total in muffin-tins        :   0.9566992109E-23  0.1319510972E-22 -0.1020447246E-21
 total moment                :   0.1149662822E-22  0.1791172134E-22 -0.9110454079E-22

RMS change in Kohn-Sham potential (target) :   0.3738195262E-01 (  0.1000000000E-05)
Absolute change in total energy (target)   :    18.03074968     (  0.1000000000E-03)

Time (CPU seconds) :        20.09

+--------------------+
| Loop number :   11 |
+--------------------+

Energies :
 Fermi                       :      36.5972910469    
 sum of eigenvalues          :     -5329.90366655    
 electron kinetic            :      28196.6984415    
 core electron kinetic       :      24622.6457784    
 Coulomb                     :     -49053.9810801    
 Coulomb potential           :     -32766.3341852    
 nuclear-nuclear             :     -12036.0705396    
 electron-nuclear            :     -41269.4868959    
 Hartree                     :      4251.57635533    
 Madelung                    :     -32670.8139875    
 xc potential                :     -760.267922791    
 xc effective B-field        :    -0.308788431713E-07
 external B-field            :      0.00000000000    
 exchange                    :     -561.675760620    
 correlation                 :     -10.5645429842    
 electron entropic           :    -0.620215532386E-04
 total energy                :     -21429.5230043    
 (external B-field energy excluded from total)

Density of states at Fermi energy :    21.97265608    
 (states/Hartree/unit cell)

Estimated indirect band gap :   0.2540228430E-01
 from k-point     11 to k-point     22
Estimated direct band gap   :   0.4655039457    
 at k-point     13

Charges :
 core                        :    68.00000000    
 valence                     :    14.00000000    
 interstitial                :    16.06800493    
 muffin-tins (core leakage)
  species :    1 (Pb)
   atom    1                 :    65.93199507     (   36.88574319    )
 total in muffin-tins        :    65.93199507    
 total calculated charge     :    45.11495989    
 total charge                :    82.00000000    
 error                       :    36.88504011    

Moments :
 interstitial                :   0.6906614593E-24 -0.1850896330E-24  0.6377014812E-23
 muffin-tins
  species :    1 (Pb)
   atom    1                 :   0.7905480773E-24 -0.2380100860E-22  0.5223139261E-22
 total in muffin-tins        :   0.7905480773E-24 -0.2380100860E-22  0.5223139261E-22
 total moment                :   0.1481209537E-23 -0.2398609823E-22  0.5860840742E-22

RMS change in Kohn-Sham potential (target) :   0.2770928494E-01 (  0.1000000000E-05)
Absolute change in total energy (target)   :    8.042681012     (  0.1000000000E-03)

Time (CPU seconds) :        21.83

+--------------------+
| Loop number :   12 |
+--------------------+

Energies :
 Fermi                       :      36.6328156621    
 sum of eigenvalues          :     -5328.36229273    
 electron kinetic            :      28198.2121256    
 core electron kinetic       :      24623.5507708    
 Coulomb                     :     -49053.9923154    
 Coulomb potential           :     -32766.3131917    
 nuclear-nuclear             :     -12036.0705396    
 electron-nuclear            :     -41269.5303599    
 Hartree                     :      4251.60858413    
 Madelung                    :     -32670.8357195    
 xc potential                :     -760.261226602    
 xc effective B-field        :    -0.308968780884E-07
 external B-field            :      0.00000000000    
 exchange                    :     -561.670757549    
 correlation                 :     -10.5645177161    
 electron entropic           :    -0.620215532207E-04
 total energy                :     -21428.0155271    
 (external B-field energy excluded from total)

Density of states at Fermi energy :    21.97265607    
 (states/Hartree/unit cell)

Estimated indirect band gap :   0.2567179346E-01
 from k-point     11 to k-point     22
Estimated direct band gap   :   0.4662249161    
 at k-point     13

Charges :
 core                        :    68.00000000    
 valence                     :    14.00000000    
 interstitial                :    16.07044219    
 muffin-tins (core leakage)
  species :    1 (Pb)
   atom    1                 :    65.92955781     (   36.88938429    )
 total in muffin-tins        :    65.92955781    
 total calculated charge     :    45.11131845    
 total charge                :    82.00000000    
 error                       :    36.88868155    

Moments :
 interstitial                :  -0.1604544822E-23 -0.8357734458E-24  0.1774142936E-23
 muffin-tins
  species :    1 (Pb)
   atom    1                 :  -0.2260401072E-22  0.6097233532E-22 -0.6042015609E-22
 total in muffin-tins        :  -0.2260401072E-22  0.6097233532E-22 -0.6042015609E-22
 total moment                :  -0.2420855554E-22  0.6013656187E-22 -0.5864601315E-22

RMS change in Kohn-Sham potential (target) :   0.1796142824E-01 (  0.1000000000E-05)
Absolute change in total energy (target)   :    3.518147420     (  0.1000000000E-03)

Time (CPU seconds) :        23.60

+--------------------+
| Loop number :   13 |
+--------------------+

Energies :
 Fermi                       :      36.6480291506    
 sum of eigenvalues          :     -5327.59038576    
 electron kinetic            :      28199.1545259    
 core electron kinetic       :      24624.1946849    
 Coulomb                     :     -49054.2373008    
 Coulomb potential           :     -32766.4827440    
 nuclear-nuclear             :     -12036.0705396    
 electron-nuclear            :     -41269.8507785    
 Hartree                     :      4251.68401723    
 Madelung                    :     -32670.9959288    
 xc potential                :     -760.262167574    
 xc effective B-field        :    -0.308992907463E-07
 external B-field            :      0.00000000000    
 exchange                    :     -561.671463980    
 correlation                 :     -10.5645167136    
 electron entropic           :    -0.620215532061E-04
 total energy                :     -21427.3188177    
 (external B-field energy excluded from total)

Density of states at Fermi energy :    21.97265606    
 (states/Hartree/unit cell)

Estimated indirect band gap :   0.2575601264E-01
 from k-point     11 to k-point     22
Estimated direct band gap   :   0.4664056641    
 at k-point     13

Charges :
 core                        :    68.00000000    
 valence                     :    14.00000000    
 interstitial                :    16.07124615    
 muffin-tins (core leakage)
  species :    1 (Pb)
   atom    1                 :    65.92875385     (   36.89068247    )
 total in muffin-tins        :    65.92875385    
 total calculated charge     :    45.11002008    
 total charge                :    82.00000000    
 error                       :    36.88997992    

Moments :
 interstitial                :   0.3661667507E-23 -0.4197227791E-23  0.9059739332E-23
 muffin-tins
  species :    1 (Pb)
   atom    1                 :  -0.4446095812E-22 -0.2751624614E-22  0.1474250621E-22
 total in muffin-tins        :  -0.4446095812E-22 -0.2751624614E-22  0.1474250621E-22
 total moment                :  -0.4079929062E-22 -0.3171347393E-22  0.2380224554E-22

RMS change in Kohn-Sham potential (target) :   0.9989876690E-02 (  0.1000000000E-05)
Absolute change in total energy (target)   :    1.576246268     (  0.1000000000E-03)

Time (CPU seconds) :        25.35

+--------------------+
| Loop number :   14 |
+--------------------+

Energies :
 Fermi                       :      36.6544299307    
 sum of eigenvalues          :     -5327.19014974    
 electron kinetic            :      28199.6859320    
 core electron kinetic       :      24624.5865089    
 Coulomb                     :     -49054.4133633    
 Coulomb potential           :     -32766.6122212    
 nuclear-nuclear             :     -12036.0705396    
 electron-nuclear            :     -41270.0734263    
 Hartree                     :      4251.73060257    
 Madelung                    :     -32671.1072527    
 xc potential                :     -760.263860492    
 xc effective B-field        :    -0.308977117375E-07
 external B-field            :     -0.00000000000    
 exchange                    :     -561.672731285    
 correlation                 :     -10.5645198057    
 electron entropic           :    -0.620215532011E-04
 total energy                :     -21426.9647445    
 (external B-field energy excluded from total)

Density of states at Fermi energy :    21.97265606    
 (states/Hartree/unit cell)

Estimated indirect band gap :   0.2577513623E-01
 from k-point     11 to k-point     22
Estimated direct band gap   :   0.4664317283    
 at k-point     13

Charges :
 core                        :    68.00000000    
 valence                     :    14.00000000    
 interstitial                :    16.07144582    
 muffin-tins (core leakage)
  species :    1 (Pb)
   atom    1                 :    65.92855418     (   36.89103603    )
 total in muffin-tins        :    65.92855418    
 total calculated charge     :    45.10966636    
 total charge                :    82.00000000    
 error                       :    36.89033364    

Moments :
 interstitial                :   0.1818276907E-24 -0.5536632368E-23  0.3778887929E-23
 muffin-tins
  species :    1 (Pb)
   atom    1                 :  -0.1164176720E-22 -0.4513322405E-24 -0.3202831722E-22
 total in muffin-tins        :  -0.1164176720E-22 -0.4513322405E-24 -0.3202831722E-22
 total moment                :  -0.1145993951E-22 -0.5987964608E-23 -0.2824942929E-22

RMS change in Kohn-Sham potential (target) :   0.4950827341E-02 (  0.1000000000E-05)
Absolute change in total energy (target)   :   0.7481347699     (  0.1000000000E-03)

Time (CPU seconds) :        27.11

+--------------------+
| Loop number :   15 |
+--------------------+

Energies :
 Fermi                       :      36.6570530591    
 sum of eigenvalues          :     -5326.98353975    
 electron kinetic            :      28199.9621737    
 core electron kinetic       :      24624.8002031    
 Coulomb                     :     -49054.5021818    
 Coulomb potential           :     -32766.6807760    
 nuclear-nuclear             :     -12036.0705396    
 electron-nuclear            :     -41270.1825084    
 Hartree                     :      4251.75086620    
 Madelung                    :     -32671.1617938    
 xc potential                :     -760.264937451    
 xc effective B-field        :    -0.308959755956E-07
 external B-field            :      0.00000000000    
 exchange                    :     -561.673537159    
 correlation                 :     -10.5645222073    
 electron entropic           :    -0.620215532060E-04
 total energy                :     -21426.7781294    
 (external B-field energy excluded from total)

Density of states at Fermi energy :    21.97265606    
 (states/Hartree/unit cell)

Estimated indirect band gap :   0.2577606878E-01
 from k-point     11 to k-point     22
Estimated direct band gap   :   0.4664246847    
 at k-point     13

Charges :
 core                        :    68.00000000    
 valence                     :    14.00000000    
 interstitial                :    16.07145690    
 muffin-tins (core leakage)
  species :    1 (Pb)
   atom    1                 :    65.92854310     (   36.89106810    )
 total in muffin-tins        :    65.92854310    
 total calculated charge     :    45.10963418    
 total charge                :    82.00000000    
 error                       :    36.89036582    

Moments :
 interstitial                :  -0.2915150461E-23 -0.4109810957E-23  0.2593648394E-23
 muffin-tins
  species :    1 (Pb)
   atom    1                 :   0.2126758851E-22  0.1914241631E-22 -0.2996431170E-22
 total in muffin-tins        :   0.2126758851E-22  0.1914241631E-22 -0.2996431170E-22
 total moment                :   0.1835243805E-22  0.1503260535E-22 -0.2737066330E-22

RMS change in Kohn-Sham potential (target) :   0.2225157601E-02 (  0.1000000000E-05)
Absolute change in total energy (target)   :   0.3736487339     (  0.1000000000E-03)

Time (CPU seconds) :        28.89

+--------------------+
| Loop number :   16 |
+--------------------+

Energies :
 Fermi                       :      36.6580787012    
 sum of eigenvalues          :     -5326.88233300    
 electron kinetic            :      28200.0942926    
 core electron kinetic       :      24624.9054491    
 Coulomb                     :     -49054.5394343    
 Coulomb potential           :     -32766.7111607    
 nuclear-nuclear             :     -12036.0705396    
 electron-nuclear            :     -41270.2266288    
 Hartree                     :      4251.75773403    
 Madelung                    :     -32671.1838540    
 xc potential                :     -760.265464891    
 xc effective B-field        :    -0.308948879730E-07
 external B-field            :      0.00000000000    
 exchange                    :     -561.673931743    
 correlation                 :     -10.5645235028    
 electron entropic           :    -0.620215532058E-04
 total energy                :     -21426.6836589    
 (external B-field energy excluded from total)

Density of states at Fermi energy :    21.97265606    
 (states/Hartree/unit cell)

Estimated indirect band gap :   0.2577391125E-01
 from k-point     11 to k-point     22
Estimated direct band gap   :   0.4664157038    
 at k-point     13

Charges :
 core                        :    68.00000000    
 valence                     :    14.00000000    
 interstitial                :    16.07142956    
 muffin-tins (core leakage)
  species :    1 (Pb)
   atom    1                 :    65.92857044     (   36.89102600    )
 total in muffin-tins        :    65.92857044    
 total calculated charge     :    45.10967623    
 total charge                :    82.00000000    
 error                       :    36.89032377    

Moments :
 interstitial                :  -0.3915097948E-24  0.7848671707E-24  0.1262177461E-23
 muffin-tins
  species :    1 (Pb)
   atom    1                 :  -0.3339938802E-23  0.4910070848E-22  0.6107555938E-23
 total in muffin-tins        :  -0.3339938802E-23  0.4910070848E-22  0.6107555938E-23
 total moment                :  -0.3731448597E-23  0.4988557565E-22  0.7369733398E-23

RMS change in Kohn-Sham potential (target) :   0.9101492113E-03 (  0.1000000000E-05)
Absolute change in total energy (target)   :   0.1878826643     (  0.1000000000E-03)

Time (CPU seconds) :        30.64

+--------------------+
| Loop number :   17 |
+--------------------+

Energies :
 Fermi                       :      36.6584540783    
 sum of eigenvalues          :     -5326.83716131    
 electron kinetic            :      28200.1515701    
 core electron kinetic       :      24624.9517319    
 Coulomb                     :     -49054.5529642    
 Coulomb potential           :     -32766.7230487    
 nuclear-nuclear             :     -12036.0705396    
 electron-nuclear            :     -41270.2418007    
 Hartree                     :      4251.75937600    
 Madelung                    :     -32671.1914399    
 xc potential                :     -760.265682746    
 xc effective B-field        :    -0.308943753667E-07
 external B-field            :      0.00000000000    
 exchange                    :     -561.674094694    
 correlation                 :     -10.5645240739    
 electron entropic           :    -0.620215532033E-04
 total energy                :     -21426.6400749    
 (external B-field energy excluded from total)

Density of states at Fermi energy :    21.97265606    
 (states/Hartree/unit cell)

Estimated indirect band gap :   0.2577234710E-01
 from k-point     11 to k-point     22
Estimated direct band gap   :   0.4664106259    
 at k-point     13

Charges :
 core                        :    68.00000000    
 valence                     :    14.00000000    
 interstitial                :    16.07140767    
 muffin-tins (core leakage)
  species :    1 (Pb)
   atom    1                 :    65.92859233     (   36.89098866    )
 total in muffin-tins        :    65.92859233    
 total calculated charge     :    45.10971353    
 total charge                :    82.00000000    
 error                       :    36.89028647    

Moments :
 interstitial                :   0.1797483285E-23 -0.3890645611E-23  0.9642716598E-23
 muffin-tins
  species :    1 (Pb)
   atom    1                 :   0.3056872277E-22 -0.3187268473E-22  0.2238905493E-22
 total in muffin-tins        :   0.3056872277E-22 -0.3187268473E-22  0.2238905493E-22
 total moment                :   0.3236620605E-22 -0.3576333035E-22  0.3203177153E-22

RMS change in Kohn-Sham potential (target) :   0.3420942832E-03 (  0.1000000000E-05)
Absolute change in total energy (target)   :   0.9055471863E-01 (  0.1000000000E-03)

Time (CPU seconds) :        32.41

+--------------------+
| Loop number :   18 |
+--------------------+

Energies :
 Fermi                       :      36.6585813325    
 sum of eigenvalues          :     -5326.81925553    
 electron kinetic            :      28200.1736446    
 core electron kinetic       :      24624.9693680    
 Coulomb                     :     -49054.5570832    
 Coulomb potential           :     -32766.7271449    
 nuclear-nuclear             :     -12036.0705396    
 electron-nuclear            :     -41270.2459424    
 Hartree                     :      4251.75939879    
 Madelung                    :     -32671.1935108    
 xc potential                :     -760.265755269    
 xc effective B-field        :    -0.308941887708E-07
 external B-field            :     -0.00000000000    
 exchange                    :     -561.674148934    
 correlation                 :     -10.5645242723    
 electron entropic           :    -0.620215532013E-04
 total energy                :     -21426.6221738    
 (external B-field energy excluded from total)

Density of states at Fermi energy :    21.97265606    
 (states/Hartree/unit cell)

Estimated indirect band gap :   0.2577159029E-01
 from k-point     11 to k-point     22
Estimated direct band gap   :   0.4664087509    
 at k-point     13

Charges :
 core                        :    68.00000000    
 valence                     :    14.00000000    
 interstitial                :    16.07139694    
 muffin-tins (core leakage)
  species :    1 (Pb)
   atom    1                 :    65.92860306     (   36.89096925    )
 total in muffin-tins        :    65.92860306    
 total calculated charge     :    45.10973292    
 total charge                :    82.00000000    
 error                       :    36.89026708    

Moments :
 interstitial                :   0.2909314904E-23 -0.1645862681E-23 -0.6456217338E-24
 muffin-tins
  species :    1 (Pb)
   atom    1                 :  -0.9167427945E-23 -0.5201740983E-24 -0.6115315611E-23
 total in muffin-tins        :  -0.9167427945E-23 -0.5201740983E-24 -0.6115315611E-23
 total moment                :  -0.6258113041E-23 -0.2166036779E-23 -0.6760937345E-23

RMS change in Kohn-Sham potential (target) :   0.1298082241E-03 (  0.1000000000E-05)
Absolute change in total energy (target)   :   0.4053975196E-01 (  0.1000000000E-03)

Time (CPU seconds) :        34.16

+--------------------+
| Loop number :   19 |
+--------------------+

Energies :
 Fermi                       :      36.6586209081    
 sum of eigenvalues          :     -5326.81290139    
 electron kinetic            :      28200.1809653    
 core electron kinetic       :      24624.9748840    
 Coulomb                     :     -49054.5577413    
 Coulomb potential           :     -32766.7280970    
 nuclear-nuclear             :     -12036.0705396    
 electron-nuclear            :     -41270.2463064    
 Hartree                     :      4251.75910473    
 Madelung                    :     -32671.1936928    
 xc potential                :     -760.265769654    
 xc effective B-field        :    -0.308941394487E-07
 external B-field            :      0.00000000000    
 exchange                    :     -561.674159689    
 correlation                 :     -10.5645243152    
 electron entropic           :    -0.620215532075E-04
 total energy                :     -21426.6155220    
 (external B-field energy excluded from total)

Density of states at Fermi energy :    21.97265607    
 (states/Hartree/unit cell)

Estimated indirect band gap :   0.2577130836E-01
 from k-point     11 to k-point     22
Estimated direct band gap   :   0.4664083701    
 at k-point     13

Charges :
 core                        :    68.00000000    
 valence                     :    14.00000000    
 interstitial                :    16.07139319    
 muffin-tins (core leakage)
  species :    1 (Pb)
   atom    1                 :    65.92860681     (   36.89096201    )
 total in muffin-tins        :    65.92860681    
 total calculated charge     :    45.10974014    
 total charge                :    82.00000000    
 error                       :    36.89025986    

Moments :
 interstitial                :   0.2122800527E-23  0.3293590114E-23 -0.5185348657E-23
 muffin-tins
  species :    1 (Pb)
   atom    1                 :   0.5589497438E-24 -0.4960003898E-22 -0.1202768048E-23
 total in muffin-tins        :   0.5589497438E-24 -0.4960003898E-22 -0.1202768048E-23
 total moment                :   0.2681750270E-23 -0.4630644887E-22 -0.6388116705E-23

RMS change in Kohn-Sham potential (target) :   0.5764314479E-04 (  0.1000000000E-05)
Absolute change in total energy (target)   :   0.1678672644E-01 (  0.1000000000E-03)

Time (CPU seconds) :        35.93

+--------------------+
| Loop number :   20 |
+--------------------+

Energies :
 Fermi                       :      36.6586318469    
 sum of eigenvalues          :     -5326.81085082    
 electron kinetic            :      28200.1829880    
 core electron kinetic       :      24624.9761593    
 Coulomb                     :     -49054.5574695    
 Coulomb potential           :     -32766.7280718    
 nuclear-nuclear             :     -12036.0705396    
 electron-nuclear            :     -41270.2457880    
 Hartree                     :      4251.75885813    
 Madelung                    :     -32671.1934336    
 xc potential                :     -760.265766972    
 xc effective B-field        :    -0.308941347656E-07
 external B-field            :      0.00000000000    
 exchange                    :     -561.674157680    
 correlation                 :     -10.5645243105    
 electron entropic           :    -0.620215532095E-04
 total energy                :     -21426.6132255    
 (external B-field energy excluded from total)

Density of states at Fermi energy :    21.97265607    
 (states/Hartree/unit cell)

Estimated indirect band gap :   0.2577123108E-01
 from k-point     11 to k-point     22
Estimated direct band gap   :   0.4664084553    
 at k-point     13

Charges :
 core                        :    68.00000000    
 valence                     :    14.00000000    
 interstitial                :    16.07139227    
 muffin-tins (core leakage)
  species :    1 (Pb)
   atom    1                 :    65.92860773     (   36.89095996    )
 total in muffin-tins        :    65.92860773    
 total calculated charge     :    45.10974221    
 total charge                :    82.00000000    
 error                       :    36.89025779    

Moments :
 interstitial                :  -0.2377835122E-23 -0.1252831219E-23  0.9806115766E-24
 muffin-tins
  species :    1 (Pb)
   atom    1                 :   0.2463792334E-23  0.1514630535E-22  0.3791853654E-22
 total in muffin-tins        :   0.2463792334E-23  0.1514630535E-22  0.3791853654E-22
 total moment                :   0.8595721254E-25  0.1389347413E-22  0.3889914812E-22

RMS change in Kohn-Sham potential (target) :   0.2722595641E-04 (  0.1000000000E-05)
Absolute change in total energy (target)   :   0.6493185385E-02 (  0.1000000000E-03)

Time (CPU seconds) :        37.70

+--------------------+
| Loop number :   21 |
+--------------------+

Energies :
 Fermi                       :      36.6586352776    
 sum of eigenvalues          :     -5326.81018800    
 electron kinetic            :      28200.1834198    
 core electron kinetic       :      24624.9763260    
 Coulomb                     :     -49054.5570811    
 Coulomb potential           :     -32766.7278464    
 nuclear-nuclear             :     -12036.0705396    
 electron-nuclear            :     -41270.2452365    
 Hartree                     :      4251.75869504    
 Madelung                    :     -32671.1931578    
 xc potential                :     -760.265761344    
 xc effective B-field        :    -0.308941397810E-07
 external B-field            :      0.00000000000    
 exchange                    :     -561.674153470    
 correlation                 :     -10.5645242968    
 electron entropic           :    -0.620215532019E-04
 total energy                :     -21426.6124010    
 (external B-field energy excluded from total)

Density of states at Fermi energy :    21.97265606    
 (states/Hartree/unit cell)

Estimated indirect band gap :   0.2577121902E-01
 from k-point     11 to k-point     22
Estimated direct band gap   :   0.4664086287    
 at k-point     13

Charges :
 core                        :    68.00000000    
 valence                     :    14.00000000    
 interstitial                :    16.07139223    
 muffin-tins (core leakage)
  species :    1 (Pb)
   atom    1                 :    65.92860777     (   36.89095962    )
 total in muffin-tins        :    65.92860777    
 total calculated charge     :    45.10974254    
 total charge                :    82.00000000    
 error                       :    36.89025746    

Moments :
 interstitial                :   0.1210114007E-23 -0.2176059037E-23 -0.8080199277E-24
 muffin-tins
  species :    1 (Pb)
   atom    1                 :   0.1075823020E-22  0.8846742341E-23  0.4554272624E-24
 total in muffin-tins        :   0.1075823020E-22  0.8846742341E-23  0.4554272624E-24
 total moment                :   0.1196834420E-22  0.6670683304E-23 -0.3525926653E-24

RMS change in Kohn-Sham potential (target) :   0.1139347685E-04 (  0.1000000000E-05)
Absolute change in total energy (target)   :   0.2447799805E-02 (  0.1000000000E-03)

Time (CPU seconds) :        39.46

+--------------------+
| Loop number :   22 |
+--------------------+

Energies :
 Fermi                       :      36.6586356323    
 sum of eigenvalues          :     -5326.80999292    
 electron kinetic            :      28200.1835167    
 core electron kinetic       :      24624.9763315    
 Coulomb                     :     -49054.5569256    
 Coulomb potential           :     -32766.7277506    
 nuclear-nuclear             :     -12036.0705396    
 electron-nuclear            :     -41270.2450214    
 Hartree                     :      4251.75863543    
 Madelung                    :     -32671.1930503    
 xc potential                :     -760.265758968    
 xc effective B-field        :    -0.308941433662E-07
 external B-field            :      0.00000000000    
 exchange                    :     -561.674151692    
 correlation                 :     -10.5645242909    
 electron entropic           :    -0.620215532055E-04
 total energy                :     -21426.6121469    
 (external B-field energy excluded from total)

Density of states at Fermi energy :    21.97265606    
 (states/Hartree/unit cell)

Estimated indirect band gap :   0.2577122229E-01
 from k-point     11 to k-point     22
Estimated direct band gap   :   0.4664087046    
 at k-point     13

Charges :
 core                        :    68.00000000    
 valence                     :    14.00000000    
 interstitial                :    16.07139225    
 muffin-tins (core leakage)
  species :    1 (Pb)
   atom    1                 :    65.92860775     (   36.89095953    )
 total in muffin-tins        :    65.92860775    
 total calculated charge     :    45.10974263    
 total charge                :    82.00000000    
 error                       :    36.89025737    

Moments :
 interstitial                :  -0.6995986780E-24 -0.1178715138E-23  0.3877009596E-23
 muffin-tins
  species :    1 (Pb)
   atom    1                 :   0.1148292199E-22  0.6023350540E-22 -0.1922628081E-22
 total in muffin-tins        :   0.1148292199E-22  0.6023350540E-22 -0.1922628081E-22
 total moment                :   0.1078332331E-22  0.5905479026E-22 -0.1534927121E-22

RMS change in Kohn-Sham potential (target) :   0.4351132047E-05 (  0.1000000000E-05)
Absolute change in total energy (target)   :   0.8660453823E-03 (  0.1000000000E-03)

Time (CPU seconds) :        41.23

+--------------------+
| Loop number :   23 |
+--------------------+

Energies :
 Fermi                       :      36.6586352488    
 sum of eigenvalues          :     -5326.80994421    
 electron kinetic            :      28200.1835475    
 core electron kinetic       :      24624.9763304    
 Coulomb                     :     -49054.5568893    
 Coulomb potential           :     -32766.7277332    
 nuclear-nuclear             :     -12036.0705396    
 electron-nuclear            :     -41270.2449663    
 Hartree                     :      4251.75861654    
 Madelung                    :     -32671.1930227    
 xc potential                :     -760.265758436    
 xc effective B-field        :    -0.308941450896E-07
 external B-field            :      0.00000000000    
 exchange                    :     -561.674151294    
 correlation                 :     -10.5645242895    
 electron entropic           :    -0.620215532047E-04
 total energy                :     -21426.6120795    
 (external B-field energy excluded from total)

Density of states at Fermi energy :    21.97265606    
 (states/Hartree/unit cell)

Estimated indirect band gap :   0.2577122610E-01
 from k-point     11 to k-point     22
Estimated direct band gap   :   0.4664087262    
 at k-point     13

Charges :
 core                        :    68.00000000    
 valence                     :    14.00000000    
 interstitial                :    16.07139223    
 muffin-tins (core leakage)
  species :    1 (Pb)
   atom    1                 :    65.92860777     (   36.89095947    )
 total in muffin-tins        :    65.92860777    
 total calculated charge     :    45.10974269    
 total charge                :    82.00000000    
 error                       :    36.89025731    

Moments :
 interstitial                :   0.2515083016E-23  0.4133436621E-24  0.2217356617E-24
 muffin-tins
  species :    1 (Pb)
   atom    1                 :  -0.5271706206E-22  0.2859599832E-22  0.3355155929E-22
 total in muffin-tins        :  -0.5271706206E-22  0.2859599832E-22  0.3355155929E-22
 total moment                :  -0.5020197904E-22  0.2900934198E-22  0.3377329495E-22

RMS change in Kohn-Sham potential (target) :   0.1580659350E-05 (  0.1000000000E-05)
Absolute change in total energy (target)   :   0.2839799636E-03 (  0.1000000000E-03)

Time (CPU seconds) :        42.99

+--------------------+
| Loop number :   24 |
+--------------------+

Energies :
 Fermi                       :      36.6586349487    
 sum of eigenvalues          :     -5326.80993344    
 electron kinetic            :      28200.1835579    
 core electron kinetic       :      24624.9763300    
 Coulomb                     :     -49054.5568864    
 Coulomb potential           :     -32766.7277329    
 nuclear-nuclear             :     -12036.0705396    
 electron-nuclear            :     -41270.2449608    
 Hartree                     :      4251.75861393    
 Madelung                    :     -32671.1930200    
 xc potential                :     -760.265758390    
 xc effective B-field        :    -0.308941457931E-07
 external B-field            :      0.00000000000    
 exchange                    :     -561.674151259    
 correlation                 :     -10.5645242894    
 electron entropic           :    -0.620215531994E-04
 total energy                :     -21426.6120661    
 (external B-field energy excluded from total)

Density of states at Fermi energy :    21.97265606    
 (states/Hartree/unit cell)

Estimated indirect band gap :   0.2577122863E-01
 from k-point     11 to k-point     22
Estimated direct band gap   :   0.4664087323    
 at k-point     13

Charges :
 core                        :    68.00000000    
 valence                     :    14.00000000    
 interstitial                :    16.07139223    
 muffin-tins (core leakage)
  species :    1 (Pb)
   atom    1                 :    65.92860777     (   36.89095945    )
 total in muffin-tins        :    65.92860777    
 total calculated charge     :    45.10974271    
 total charge                :    82.00000000    
 error                       :    36.89025729    

Moments :
 interstitial                :   0.5430341422E-23 -0.2411252801E-24  0.2000860326E-23
 muffin-tins
  species :    1 (Pb)
   atom    1                 :   0.7444842154E-23  0.1105003549E-22 -0.4167026773E-23
 total in muffin-tins        :   0.7444842154E-23  0.1105003549E-22 -0.4167026773E-23
 total moment                :   0.1287518358E-22  0.1080891021E-22 -0.2166166447E-23

RMS change in Kohn-Sham potential (target) :   0.5529779645E-06 (  0.1000000000E-05)
Absolute change in total energy (target)   :   0.8436561620E-04 (  0.1000000000E-03)

Convergence targets achieved

Time (CPU seconds) :        44.74

+--------------------+
| Loop number :   25 |
+--------------------+

Energies :
 Fermi                       :      36.6586348263    
 sum of eigenvalues          :     -5326.80993080    
 electron kinetic            :      28200.1835610    
 core electron kinetic       :      24624.9763298    
 Coulomb                     :     -49054.5568867    
 Coulomb potential           :     -32766.7277334    
 nuclear-nuclear             :     -12036.0705396    
 electron-nuclear            :     -41270.2449608    
 Hartree                     :      4251.75861369    
 Madelung                    :     -32671.1930200    
 xc potential                :     -760.265758386    
 xc effective B-field        :    -0.308941461209E-07
 external B-field            :      0.00000000000    
 exchange                    :     -561.674151256    
 correlation                 :     -10.5645242894    
 electron entropic           :    -0.620215531999E-04
 total energy                :     -21426.6120632    
 (external B-field energy excluded from total)

Density of states at Fermi energy :    21.97265606    
 (states/Hartree/unit cell)

Estimated indirect band gap :   0.2577123095E-01
 from k-point     11 to k-point     22
Estimated direct band gap   :   0.4664087352    
 at k-point     13

Charges :
 core                        :    68.00000000    
 valence                     :    14.00000000    
 interstitial                :    16.07139223    
 muffin-tins (core leakage)
  species :    1 (Pb)
   atom    1                 :    65.92860777     (   36.89095944    )
 total in muffin-tins        :    65.92860777    
 total calculated charge     :    45.10974271    
 total charge                :    82.00000000    
 error                       :    36.89025729    

Moments :
 interstitial                :   0.1178821569E-23  0.8794032461E-24  0.1627677685E-23
 muffin-tins
  species :    1 (Pb)
   atom    1                 :   0.2400370723E-22 -0.1846023312E-22  0.4306136525E-22
 total in muffin-tins        :   0.2400370723E-22 -0.1846023312E-22  0.4306136525E-22
 total moment                :   0.2518252880E-22 -0.1758082987E-22  0.4468904293E-22

+------------------------------+
| Self-consistent loop stopped |
+------------------------------+

Wrote STATE.OUT

Timings (CPU seconds) :
 initialisation                        :         2.91
 Hamiltonian and overlap matrix set up :         1.74
 first-variational eigenvalue equation :         1.21
 second-variational calculation        :        27.10
 charge density calculation            :        11.42
 potential calculation                 :         2.13
 total                                 :        46.51

+----------------------------+
| Elk version 4.0.15 stopped |
+----------------------------+
