+----------------------------+
| Elk version 4.0.15 started |
+----------------------------+

Date (YYYY-MM-DD) : 2019-01-25
Time (hh:mm:ss)   : 08:24:31

All units are atomic (Hartree, Bohr, etc.)

+-------------------------------------------------+
| Ground-state run starting from atomic densities |
+-------------------------------------------------+

Lattice vectors :
   0.000000000      0.5000000000      0.5000000000    
  0.5000000000       0.000000000      0.5000000000    
  0.5000000000      0.5000000000       0.000000000    

Reciprocal lattice vectors :
  -6.283185307       6.283185307       6.283185307    
   6.283185307      -6.283185307       6.283185307    
   6.283185307       6.283185307      -6.283185307    

Unit cell volume      :   0.2500000000    
Brillouin zone volume :    992.2008538    

Species :    1 (Pb)
 parameters loaded from : Pb.in
 name : lead
 nuclear charge    :   -82.00000000    
 electronic charge :    82.00000000    
 atomic mass :    377702.4940    
 muffin-tin radius :   0.3285533906    
 number of radial points in muffin-tin :    697
 number on inner part of muffin-tin    :    469
 atomic positions (lattice), magnetic fields (Cartesian) :
   1 :   0.00000000  0.00000000  0.00000000    0.00000000  0.00000000  0.00000000

Total number of atoms per unit cell :    1

Spin treatment :
 spin-polarised
 spin-orbit coupling
 global magnetic field (Cartesian) :    0.000000000       0.000000000       0.000000000    
 non-collinear magnetisation

Number of Bravais lattice symmetries :   48
Number of crystal symmetries         :   48
Crystal has inversion symmetry
Real symmetric eigensolver will be used

k-point grid :      8     8     8
k-point offset :    0.000000000       0.000000000       0.000000000    
k-point set is reduced with full crystal symmetry group
Total number of k-points :       29

Muffin-tin radius times maximum |G+k| :    8.000000000    
 using average radius
Maximum |G+k| for APW functions       :    24.34916281    
Maximum (1/2)|G+k|^2                  :    296.4408648    
Maximum |G| for potential and density :    48.69832662    
Constant for pseudocharge density :    4
Radial integration step length :    4

G-vector grid sizes :     12    12    12
Number of G-vectors :      531

Maximum angular momentum used for
 APW functions                      :    8
 H and O matrix elements outer loop :    7
 outer part of muffin-tin           :    7
 inner part of muffin-tin           :    3

Total nuclear charge    :   -82.00000000    
Total core charge       :    68.00000000    
Total valence charge    :    14.00000000    
Total excess charge     :    0.000000000    
Total electronic charge :    82.00000000    

Effective Wigner radius, r_s :   0.8995235040E-01

Number of empty states         :    8
Total number of valence states :   32
Total number of core states    :   68

Total number of local-orbitals :   15

Exchange-correlation functional :      3     0     0
 Perdew-Wang/Ceperley-Alder, Phys. Rev. B 45, 13244 (1992)
 Local density approximation (LDA)

Smearing type :    3
 Fermi-Dirac
Smearing width :   0.1000000000E-02
Effective electronic temperature (K) :    315.7750425    

Mixing type :    1
 Adaptive linear mixing

Density and potential initialised from atomic data

+------------------------------+
| Self-consistent loop started |
+------------------------------+

+--------------------+
| Loop number :    1 |
+--------------------+

Energies :
 Fermi                       :      24.4203883265    
 sum of eigenvalues          :     -5865.46276311    
 electron kinetic            :      28456.6690013    
 core electron kinetic       :      25280.4976841    
 Coulomb                     :     -50072.0064409    
 Coulomb potential           :     -33545.4302888    
 nuclear-nuclear             :     -12036.0705396    
 electron-nuclear            :     -42526.4415139    
 Hartree                     :      4490.50561257    
 Madelung                    :     -33299.2912965    
 xc potential                :     -776.701475619    
 xc effective B-field        :    -0.149862651466E-07
 external B-field            :      0.00000000000    
 exchange                    :     -573.969112375    
 correlation                 :     -10.6065194326    
 electron entropic           :    -0.714303030033E-04
 total energy                :     -22199.9131429    
 (external B-field energy excluded from total)

Density of states at Fermi energy :    24.67827484    
 (states/Hartree/unit cell)

Estimated indirect band gap :   0.2612898986E-02
 from k-point      6 to k-point     22
Estimated direct band gap   :   0.4392693241    
 at k-point      6

Charges :
 core                        :    68.00000000    
 valence                     :    14.00000000    
 interstitial                :    14.92502303    
 muffin-tins (core leakage)
  species :    1 (Pb)
   atom    1                 :    67.07497697     (   35.23148177    )
 total in muffin-tins        :    67.07497697    
 total calculated charge     :    46.76944039    
 total charge                :    82.00000000    
 error                       :    35.23055961    

Moments :
 interstitial                :  -0.1569888018E-28 -0.4148466791E-29  0.1172758451E-27
 muffin-tins
  species :    1 (Pb)
   atom    1                 :   0.9304858640E-22  0.1738338390E-23 -0.5400742375E-22
 total in muffin-tins        :   0.9304858640E-22  0.1738338390E-23 -0.5400742375E-22
 total moment                :   0.9304857071E-22  0.1738334241E-23 -0.5400730647E-22

Time (CPU seconds) :         4.34

+--------------------+
| Loop number :    2 |
+--------------------+

Energies :
 Fermi                       :      26.1126511806    
 sum of eigenvalues          :     -5789.58468892    
 electron kinetic            :      28421.3098844    
 core electron kinetic       :      25152.8162349    
 Coulomb                     :     -49930.4668350    
 Coulomb potential           :     -33436.4724459    
 nuclear-nuclear             :     -12036.0705396    
 electron-nuclear            :     -42352.3201450    
 Hartree                     :      4457.92384957    
 Madelung                    :     -33212.2306121    
 xc potential                :     -774.422127390    
 xc effective B-field        :    -0.169620883645E-07
 external B-field            :     -0.00000000000    
 exchange                    :     -572.263944862    
 correlation                 :     -10.6007889531    
 electron entropic           :    -0.620664139280E-04
 total energy                :     -22092.0217465    
 (external B-field energy excluded from total)

Density of states at Fermi energy :    21.97586513    
 (states/Hartree/unit cell)

Estimated indirect band gap :   0.2102840037E-01
 from k-point      6 to k-point     22
Estimated direct band gap   :   0.4926211446    
 at k-point      6

Charges :
 core                        :    68.00000000    
 valence                     :    14.00000000    
 interstitial                :    15.07373272    
 muffin-tins (core leakage)
  species :    1 (Pb)
   atom    1                 :    66.92626728     (   35.47284456    )
 total in muffin-tins        :    66.92626728    
 total calculated charge     :    46.52805235    
 total charge                :    82.00000000    
 error                       :    35.47194765    

Moments :
 interstitial                :  -0.4509870775E-25 -0.4799058743E-25 -0.3208503339E-25
 muffin-tins
  species :    1 (Pb)
   atom    1                 :  -0.3514285693E-22 -0.6125666120E-23 -0.2297746898E-22
 total in muffin-tins        :  -0.3514285693E-22 -0.6125666120E-23 -0.2297746898E-22
 total moment                :  -0.3518795564E-22 -0.6173656707E-23 -0.2300955401E-22

RMS change in Kohn-Sham potential (target) :    14.81968012     (  0.1000000000E-05)
Absolute change in total energy (target)   :    107.8913963     (  0.1000000000E-03)

Time (CPU seconds) :         5.99

+--------------------+
| Loop number :    3 |
+--------------------+

Energies :
 Fermi                       :      28.2826192761    
 sum of eigenvalues          :     -5692.55897027    
 electron kinetic            :      28371.8742008    
 core electron kinetic       :      25009.8358069    
 Coulomb                     :     -49743.6836652    
 Coulomb potential           :     -33293.0078067    
 nuclear-nuclear             :     -12036.0705396    
 electron-nuclear            :     -42122.2184445    
 Hartree                     :      4414.60531889    
 Madelung                    :     -33097.1797618    
 xc potential                :     -771.425364364    
 xc effective B-field        :    -0.195487172831E-07
 external B-field            :      0.00000000000    
 exchange                    :     -570.022102639    
 correlation                 :     -10.5932289279    
 electron entropic           :    -0.620342125388E-04
 total energy                :     -21952.4248580    
 (external B-field energy excluded from total)

Density of states at Fermi energy :    21.97345584    
 (states/Hartree/unit cell)

Estimated indirect band gap :   0.5468495418E-01
 from k-point      6 to k-point     22
Estimated direct band gap   :   0.5716209813    
 at k-point      6

Charges :
 core                        :    68.00000000    
 valence                     :    14.00000000    
 interstitial                :    15.26948502    
 muffin-tins (core leakage)
  species :    1 (Pb)
   atom    1                 :    66.73051498     (   35.77692554    )
 total in muffin-tins        :    66.73051498    
 total calculated charge     :    46.22393554    
 total charge                :    82.00000000    
 error                       :    35.77606446    

Moments :
 interstitial                :  -0.6244827575E-25 -0.2289838981E-24  0.9957416673E-25
 muffin-tins
  species :    1 (Pb)
   atom    1                 :   0.2556269712E-22 -0.6037194178E-22  0.4830188729E-24
 total in muffin-tins        :   0.2556269712E-22 -0.6037194178E-22  0.4830188729E-24
 total moment                :   0.2550024884E-22 -0.6060092568E-22  0.5825930396E-24

RMS change in Kohn-Sham potential (target) :    11.47260093     (  0.1000000000E-05)
Absolute change in total energy (target)   :    166.5697377     (  0.1000000000E-03)

Time (CPU seconds) :         7.74

+--------------------+
| Loop number :    4 |
+--------------------+

Energies :
 Fermi                       :      30.5577328938    
 sum of eigenvalues          :     -5591.35337387    
 electron kinetic            :      28316.2470182    
 core electron kinetic       :      24874.7831763    
 Coulomb                     :     -49543.1739439    
 Coulomb potential           :     -33139.3815324    
 nuclear-nuclear             :     -12036.0705396    
 electron-nuclear            :     -41874.8252762    
 Hartree                     :      4367.72187188    
 Madelung                    :     -32973.4831777    
 xc potential                :     -768.218859574    
 xc effective B-field        :    -0.223332378704E-07
 external B-field            :      0.00000000000    
 exchange                    :     -567.623385276    
 correlation                 :     -10.5850994997    
 electron entropic           :    -0.621528333216E-04
 total energy                :     -21805.1354727    
 (external B-field energy excluded from total)

Density of states at Fermi energy :    21.98325202    
 (states/Hartree/unit cell)

Estimated indirect band gap :   0.4638626640E-01
 from k-point     13 to k-point     22
Estimated direct band gap   :   0.6687873884    
 at k-point      6

Charges :
 core                        :    68.00000000    
 valence                     :    14.00000000    
 interstitial                :    15.48148674    
 muffin-tins (core leakage)
  species :    1 (Pb)
   atom    1                 :    66.51851326     (   36.09021998    )
 total in muffin-tins        :    66.51851326    
 total calculated charge     :    45.91059946    
 total charge                :    82.00000000    
 error                       :    36.08940054    

Moments :
 interstitial                :   0.7846179496E-25 -0.2972604658E-24  0.4613487871E-24
 muffin-tins
  species :    1 (Pb)
   atom    1                 :  -0.2363060286E-22  0.8965565422E-22  0.4305867045E-22
 total in muffin-tins        :  -0.2363060286E-22  0.8965565422E-22  0.4305867045E-22
 total moment                :  -0.2355214106E-22  0.8935839375E-22  0.4352001924E-22

RMS change in Kohn-Sham potential (target) :    7.967539020     (  0.1000000000E-05)
Absolute change in total energy (target)   :    188.9318197     (  0.1000000000E-03)

Time (CPU seconds) :         9.50

+--------------------+
| Loop number :    5 |
+--------------------+

Energies :
 Fermi                       :      32.6040296630    
 sum of eigenvalues          :     -5501.11322862    
 electron kinetic            :      28264.6219712    
 core electron kinetic       :      24765.4992210    
 Coulomb                     :     -49361.3806351    
 Coulomb potential           :     -33000.4213455    
 nuclear-nuclear             :     -12036.0705396    
 electron-nuclear            :     -41650.1988456    
 Hartree                     :      4324.88875002    
 Madelung                    :     -32861.1699624    
 xc potential                :     -765.313854283    
 xc effective B-field        :    -0.248361130680E-07
 external B-field            :      0.00000000000    
 exchange                    :     -565.450248622    
 correlation                 :     -10.5776873497    
 electron entropic           :    -0.104500513017E-03
 total energy                :     -21672.7867044    
 (external B-field energy excluded from total)

Density of states at Fermi energy :    35.33450649    
 (states/Hartree/unit cell)

Estimated indirect band gap :   0.1500405220    
 from k-point     14 to k-point     22
Estimated direct band gap   :   0.2725810017    
 at k-point     13

Charges :
 core                        :    68.00000000    
 valence                     :    14.00000000    
 interstitial                :    15.67863139    
 muffin-tins (core leakage)
  species :    1 (Pb)
   atom    1                 :    66.32136861     (   36.36770562    )
 total in muffin-tins        :    66.32136861    
 total calculated charge     :    45.63307466    
 total charge                :    82.00000000    
 error                       :    36.36692534    

Moments :
 interstitial                :  -0.5841672843E-24  0.5196167928E-24  0.4085587825E-24
 muffin-tins
  species :    1 (Pb)
   atom    1                 :   0.1667095405E-22 -0.2539875080E-22  0.5980197305E-23
 total in muffin-tins        :   0.1667095405E-22 -0.2539875080E-22  0.5980197305E-23
 total moment                :   0.1608678676E-22 -0.2487913400E-22  0.6388756087E-23

RMS change in Kohn-Sham potential (target) :    4.874652270     (  0.1000000000E-05)
Absolute change in total energy (target)   :    179.5817232     (  0.1000000000E-03)

Time (CPU seconds) :        11.25

+--------------------+
| Loop number :    6 |
+--------------------+

Energies :
 Fermi                       :      34.2037821722    
 sum of eigenvalues          :     -5431.16922964    
 electron kinetic            :      28225.7302694    
 core electron kinetic       :      24690.2129251    
 Coulomb                     :     -49221.6803736    
 Coulomb potential           :     -32893.8260426    
 nuclear-nuclear             :     -12036.0705396    
 electron-nuclear            :     -41477.3936255    
 Hartree                     :      4291.78379146    
 Madelung                    :     -32774.7673523    
 xc potential                :     -763.073456413    
 xc effective B-field        :    -0.282072346065E-07
 external B-field            :      0.00000000000    
 exchange                    :     -563.774314565    
 correlation                 :     -10.5719281259    
 electron entropic           :    -0.632488810159E-04
 total energy                :     -21570.2964102    
 (external B-field energy excluded from total)

Density of states at Fermi energy :    22.16608361    
 (states/Hartree/unit cell)

Estimated indirect band gap :   0.6905857618E-02
 from k-point     11 to k-point     22
Estimated direct band gap   :   0.3556508225    
 at k-point     13

Charges :
 core                        :    68.00000000    
 valence                     :    14.00000000    
 interstitial                :    15.83698681    
 muffin-tins (core leakage)
  species :    1 (Pb)
   atom    1                 :    66.16301319     (   36.58231588    )
 total in muffin-tins        :    66.16301319    
 total calculated charge     :    45.41843096    
 total charge                :    82.00000000    
 error                       :    36.58156904    

Moments :
 interstitial                :  -0.1254931062E-23 -0.2542702693E-23 -0.2071833722E-24
 muffin-tins
  species :    1 (Pb)
   atom    1                 :  -0.2947588554E-22  0.2039955486E-22  0.6872840242E-23
 total in muffin-tins        :  -0.2947588554E-22  0.2039955486E-22  0.6872840242E-23
 total moment                :  -0.3073081661E-22  0.1785685216E-22  0.6665656870E-23

RMS change in Kohn-Sham potential (target) :    2.564160147     (  0.1000000000E-05)
Absolute change in total energy (target)   :    147.3857250     (  0.1000000000E-03)

Time (CPU seconds) :        13.01

+--------------------+
| Loop number :    7 |
+--------------------+

Energies :
 Fermi                       :      35.3048138196    
 sum of eigenvalues          :     -5383.71883936    
 electron kinetic            :      28202.8682779    
 core electron kinetic       :      24647.1066976    
 Coulomb                     :     -49131.2763724    
 Coulomb potential           :     -32824.9808103    
 nuclear-nuclear             :     -12036.0705396    
 electron-nuclear            :     -41365.4308554    
 Hartree                     :      4270.22502255    
 Madelung                    :     -32718.7859673    
 xc potential                :     -761.606306918    
 xc effective B-field        :    -0.295423513065E-07
 external B-field            :      0.00000000000    
 exchange                    :     -562.676837554    
 correlation                 :     -10.5681208504    
 electron entropic           :    -0.620228222388E-04
 total energy                :     -21501.6531150    
 (external B-field energy excluded from total)

Density of states at Fermi energy :    21.97275876    
 (states/Hartree/unit cell)

Estimated indirect band gap :   0.1445901341E-01
 from k-point     11 to k-point     22
Estimated direct band gap   :   0.4105286332    
 at k-point     13

Charges :
 core                        :    68.00000000    
 valence                     :    14.00000000    
 interstitial                :    15.94683949    
 muffin-tins (core leakage)
  species :    1 (Pb)
   atom    1                 :    66.05316051     (   36.72747913    )
 total in muffin-tins        :    66.05316051    
 total calculated charge     :    45.27324507    
 total charge                :    82.00000000    
 error                       :    36.72675493    

Moments :
 interstitial                :  -0.2878209324E-23  0.2291702266E-23 -0.7110174214E-24
 muffin-tins
  species :    1 (Pb)
   atom    1                 :   0.1159648014E-22  0.1872874124E-22 -0.7673255073E-25
 total in muffin-tins        :   0.1159648014E-22  0.1872874124E-22 -0.7673255073E-25
 total moment                :   0.8718270813E-23  0.2102044350E-22 -0.7877499722E-24

RMS change in Kohn-Sham potential (target) :    1.117496851     (  0.1000000000E-05)
Absolute change in total energy (target)   :    105.4897265     (  0.1000000000E-03)

Time (CPU seconds) :        14.77

+--------------------+
| Loop number :    8 |
+--------------------+

Energies :
 Fermi                       :      35.9751928068    
 sum of eigenvalues          :     -5355.41104538    
 electron kinetic            :      28193.5686971    
 core electron kinetic       :      24627.6884602    
 Coulomb                     :     -49082.8444217    
 Coulomb potential           :     -32788.1797135    
 nuclear-nuclear             :     -12036.0705396    
 electron-nuclear            :     -41305.3680507    
 Hartree                     :      4258.59416860    
 Madelung                    :     -32688.7545649    
 xc potential                :     -760.800028936    
 xc effective B-field        :    -0.302793311795E-07
 external B-field            :      0.00000000000    
 exchange                    :     -562.073735752    
 correlation                 :     -10.5660005405    
 electron entropic           :    -0.620215609562E-04
 total energy                :     -21461.9155229    
 (external B-field energy excluded from total)

Density of states at Fermi energy :    21.97265659    
 (states/Hartree/unit cell)

Estimated indirect band gap :   0.1987294397E-01
 from k-point     11 to k-point     22
Estimated direct band gap   :   0.4416407608    
 at k-point     13

Charges :
 core                        :    68.00000000    
 valence                     :    14.00000000    
 interstitial                :    16.01253782    
 muffin-tins (core leakage)
  species :    1 (Pb)
   atom    1                 :    65.98746218     (   36.81307925    )
 total in muffin-tins        :    65.98746218    
 total calculated charge     :    45.18763197    
 total charge                :    82.00000000    
 error                       :    36.81236803    

Moments :
 interstitial                :  -0.1459331465E-23 -0.6750319779E-24  0.1027120336E-23
 muffin-tins
  species :    1 (Pb)
   atom    1                 :   0.2818018567E-22  0.2912922337E-22  0.1471783200E-23
 total in muffin-tins        :   0.2818018567E-22  0.2912922337E-22  0.1471783200E-23
 total moment                :   0.2672085421E-22  0.2845419139E-22  0.2498903535E-23

RMS change in Kohn-Sham potential (target) :   0.3786511769     (  0.1000000000E-05)
Absolute change in total energy (target)   :    66.11002367     (  0.1000000000E-03)

Time (CPU seconds) :        16.52

+--------------------+
| Loop number :    9 |
+--------------------+

Energies :
 Fermi                       :      36.3383570996    
 sum of eigenvalues          :     -5340.39403850    
 electron kinetic            :      28192.4401309    
 core electron kinetic       :      24621.8451533    
 Coulomb                     :     -49062.0445484    
 Coulomb potential           :     -32772.3985704    
 nuclear-nuclear             :     -12036.0705396    
 electron-nuclear            :     -41279.5494474    
 Hartree                     :      4253.57543851    
 Madelung                    :     -32675.8452633    
 xc potential                :     -760.435598965    
 xc effective B-field        :    -0.306514839528E-07
 external B-field            :      0.00000000000    
 exchange                    :     -561.801155514    
 correlation                 :     -10.5650212663    
 electron entropic           :    -0.620215536257E-04
 total energy                :     -21441.9706564    
 (external B-field energy excluded from total)

Density of states at Fermi energy :    21.97265612    
 (states/Hartree/unit cell)

Estimated indirect band gap :   0.2308022980E-01
 from k-point     11 to k-point     22
Estimated direct band gap   :   0.4568211556    
 at k-point     13

Charges :
 core                        :    68.00000000    
 valence                     :    14.00000000    
 interstitial                :    16.04640363    
 muffin-tins (core leakage)
  species :    1 (Pb)
   atom    1                 :    65.95359637     (   36.85702137    )
 total in muffin-tins        :    65.95359637    
 total calculated charge     :    45.14368443    
 total charge                :    82.00000000    
 error                       :    36.85631557    

Moments :
 interstitial                :  -0.4127585003E-23 -0.1902757034E-23  0.1633919246E-24
 muffin-tins
  species :    1 (Pb)
   atom    1                 :   0.1683362843E-22 -0.1148400020E-22  0.4735415949E-22
 total in muffin-tins        :   0.1683362843E-22 -0.1148400020E-22  0.4735415949E-22
 total moment                :   0.1270604343E-22 -0.1338675724E-22  0.4751755141E-22

RMS change in Kohn-Sham potential (target) :   0.9346465057E-01 (  0.1000000000E-05)
Absolute change in total energy (target)   :    36.47237244     (  0.1000000000E-03)

Time (CPU seconds) :        18.26

+--------------------+
| Loop number :   10 |
+--------------------+

Energies :
 Fermi                       :      36.5163518807    
 sum of eigenvalues          :     -5333.12082340    
 electron kinetic            :      28194.5738280    
 core electron kinetic       :      24621.7058540    
 Coulomb                     :     -49055.3639746    
 Coulomb potential           :     -32767.3901174    
 nuclear-nuclear             :     -12036.0705396    
 electron-nuclear            :     -41271.1967527    
 Hartree                     :      4251.90331763    
 Madelung                    :     -32671.6689159    
 xc potential                :     -760.304533977    
 xc effective B-field        :    -0.308167675625E-07
 external B-field            :      0.00000000000    
 exchange                    :     -561.703134666    
 correlation                 :     -10.5646544164    
 electron entropic           :    -0.620215533032E-04
 total energy                :     -21433.0579977    
 (external B-field energy excluded from total)

Density of states at Fermi energy :    21.97265609    
 (states/Hartree/unit cell)

Estimated indirect band gap :   0.2469201247E-01
 from k-point     11 to k-point     22
Estimated direct band gap   :   0.4631957276    
 at k-point     13

Charges :
 core                        :    68.00000000    
 valence                     :    14.00000000    
 interstitial                :    16.06161743    
 muffin-tins (core leakage)
  species :    1 (Pb)
   atom    1                 :    65.93838257     (   36.87687437    )
 total in muffin-tins        :    65.93838257    
 total calculated charge     :    45.12382946    
 total charge                :    82.00000000    
 error                       :    36.87617054    

Moments :
 interstitial                :  -0.3311260792E-23  0.5370639580E-24 -0.3873396355E-23
 muffin-tins
  species :    1 (Pb)
   atom    1                 :   0.4202843986E-22 -0.1528846399E-22  0.2317999016E-22
 total in muffin-tins        :   0.4202843986E-22 -0.1528846399E-22  0.2317999016E-22
 total moment                :   0.3871717907E-22 -0.1475140003E-22  0.1930659380E-22

RMS change in Kohn-Sham potential (target) :   0.3738195393E-01 (  0.1000000000E-05)
Absolute change in total energy (target)   :    18.03075180     (  0.1000000000E-03)

Time (CPU seconds) :        20.02

+--------------------+
| Loop number :   11 |
+--------------------+

Energies :
 Fermi                       :      36.5972910518    
 sum of eigenvalues          :     -5329.90366606    
 electron kinetic            :      28196.6984423    
 core electron kinetic       :      24622.6457786    
 Coulomb                     :     -49053.9810803    
 Coulomb potential           :     -32766.3341855    
 nuclear-nuclear             :     -12036.0705396    
 electron-nuclear            :     -41269.4868959    
 Hartree                     :      4251.57635517    
 Madelung                    :     -32670.8139875    
 xc potential                :     -760.267922785    
 xc effective B-field        :    -0.308788431939E-07
 external B-field            :      0.00000000000    
 exchange                    :     -561.675760616    
 correlation                 :     -10.5645429842    
 electron entropic           :    -0.620215532423E-04
 total energy                :     -21429.5230036    
 (external B-field energy excluded from total)

Density of states at Fermi energy :    21.97265608    
 (states/Hartree/unit cell)

Estimated indirect band gap :   0.2540228523E-01
 from k-point     11 to k-point     22
Estimated direct band gap   :   0.4655039454    
 at k-point     13

Charges :
 core                        :    68.00000000    
 valence                     :    14.00000000    
 interstitial                :    16.06800492    
 muffin-tins (core leakage)
  species :    1 (Pb)
   atom    1                 :    65.93199508     (   36.88574319    )
 total in muffin-tins        :    65.93199508    
 total calculated charge     :    45.11495990    
 total charge                :    82.00000000    
 error                       :    36.88504010    

Moments :
 interstitial                :  -0.1157786367E-23 -0.7001118304E-24 -0.4483980615E-24
 muffin-tins
  species :    1 (Pb)
   atom    1                 :   0.3505084657E-23 -0.2159979594E-22 -0.2343672171E-22
 total in muffin-tins        :   0.3505084657E-23 -0.2159979594E-22 -0.2343672171E-22
 total moment                :   0.2347298290E-23 -0.2229990777E-22 -0.2388511977E-22

RMS change in Kohn-Sham potential (target) :   0.2770928668E-01 (  0.1000000000E-05)
Absolute change in total energy (target)   :    8.042682043     (  0.1000000000E-03)

Time (CPU seconds) :        21.77

+--------------------+
| Loop number :   12 |
+--------------------+

Energies :
 Fermi                       :      36.6328156583    
 sum of eigenvalues          :     -5328.36229289    
 electron kinetic            :      28198.2121249    
 core electron kinetic       :      24623.5507703    
 Coulomb                     :     -49053.9923151    
 Coulomb potential           :     -32766.3131912    
 nuclear-nuclear             :     -12036.0705396    
 electron-nuclear            :     -41269.5303599    
 Hartree                     :      4251.60858437    
 Madelung                    :     -32670.8357195    
 xc potential                :     -760.261226600    
 xc effective B-field        :    -0.308968780883E-07
 external B-field            :      0.00000000000    
 exchange                    :     -561.670757548    
 correlation                 :     -10.5645177161    
 electron entropic           :    -0.620215532203E-04
 total energy                :     -21428.0155275    
 (external B-field energy excluded from total)

Density of states at Fermi energy :    21.97265607    
 (states/Hartree/unit cell)

Estimated indirect band gap :   0.2567179310E-01
 from k-point     11 to k-point     22
Estimated direct band gap   :   0.4662249161    
 at k-point     13

Charges :
 core                        :    68.00000000    
 valence                     :    14.00000000    
 interstitial                :    16.07044219    
 muffin-tins (core leakage)
  species :    1 (Pb)
   atom    1                 :    65.92955781     (   36.88938429    )
 total in muffin-tins        :    65.92955781    
 total calculated charge     :    45.11131845    
 total charge                :    82.00000000    
 error                       :    36.88868155    

Moments :
 interstitial                :  -0.3460452313E-23  0.3603992077E-23  0.2573881541E-23
 muffin-tins
  species :    1 (Pb)
   atom    1                 :  -0.9924751394E-23 -0.8617566701E-23  0.4392297210E-22
 total in muffin-tins        :  -0.9924751394E-23 -0.8617566701E-23  0.4392297210E-22
 total moment                :  -0.1338520371E-22 -0.5013574624E-23  0.4649685364E-22

RMS change in Kohn-Sham potential (target) :   0.1796142925E-01 (  0.1000000000E-05)
Absolute change in total energy (target)   :    3.518146635     (  0.1000000000E-03)

Time (CPU seconds) :        23.53

+--------------------+
| Loop number :   13 |
+--------------------+

Energies :
 Fermi                       :      36.6480291485    
 sum of eigenvalues          :     -5327.59038583    
 electron kinetic            :      28199.1545251    
 core electron kinetic       :      24624.1946844    
 Coulomb                     :     -49054.2373033    
 Coulomb potential           :     -32766.4827434    
 nuclear-nuclear             :     -12036.0705396    
 electron-nuclear            :     -41269.8507840    
 Hartree                     :      4251.68402032    
 Madelung                    :     -32670.9959316    
 xc potential                :     -760.262167579    
 xc effective B-field        :    -0.308992907240E-07
 external B-field            :      0.00000000000    
 exchange                    :     -561.671463984    
 correlation                 :     -10.5645167136    
 electron entropic           :    -0.620215532138E-04
 total energy                :     -21427.3188208    
 (external B-field energy excluded from total)

Density of states at Fermi energy :    21.97265607    
 (states/Hartree/unit cell)

Estimated indirect band gap :   0.2575601255E-01
 from k-point     11 to k-point     22
Estimated direct band gap   :   0.4664056640    
 at k-point     13

Charges :
 core                        :    68.00000000    
 valence                     :    14.00000000    
 interstitial                :    16.07124615    
 muffin-tins (core leakage)
  species :    1 (Pb)
   atom    1                 :    65.92875385     (   36.89068247    )
 total in muffin-tins        :    65.92875385    
 total calculated charge     :    45.11002007    
 total charge                :    82.00000000    
 error                       :    36.88997993    

Moments :
 interstitial                :  -0.1116583632E-23 -0.2579162516E-23  0.2007976503E-23
 muffin-tins
  species :    1 (Pb)
   atom    1                 :  -0.3263055994E-23 -0.2686354884E-22  0.1369979498E-22
 total in muffin-tins        :  -0.3263055994E-23 -0.2686354884E-22  0.1369979498E-22
 total moment                :  -0.4379639625E-23 -0.2944271136E-22  0.1570777148E-22

RMS change in Kohn-Sham potential (target) :   0.9989876364E-02 (  0.1000000000E-05)
Absolute change in total energy (target)   :    1.576243311     (  0.1000000000E-03)

Time (CPU seconds) :        25.28

+--------------------+
| Loop number :   14 |
+--------------------+

Energies :
 Fermi                       :      36.6544299359    
 sum of eigenvalues          :     -5327.19014930    
 electron kinetic            :      28199.6859330    
 core electron kinetic       :      24624.5865098    
 Coulomb                     :     -49054.4133664    
 Coulomb potential           :     -32766.6122217    
 nuclear-nuclear             :     -12036.0705396    
 electron-nuclear            :     -41270.0734319    
 Hartree                     :      4251.73060506    
 Madelung                    :     -32671.1072555    
 xc potential                :     -760.263860494    
 xc effective B-field        :    -0.308977117209E-07
 external B-field            :      0.00000000000    
 exchange                    :     -561.672731286    
 correlation                 :     -10.5645198057    
 electron entropic           :    -0.620215532025E-04
 total energy                :     -21426.9647465    
 (external B-field energy excluded from total)

Density of states at Fermi energy :    21.97265606    
 (states/Hartree/unit cell)

Estimated indirect band gap :   0.2577513701E-01
 from k-point     11 to k-point     22
Estimated direct band gap   :   0.4664317281    
 at k-point     13

Charges :
 core                        :    68.00000000    
 valence                     :    14.00000000    
 interstitial                :    16.07144582    
 muffin-tins (core leakage)
  species :    1 (Pb)
   atom    1                 :    65.92855418     (   36.89103603    )
 total in muffin-tins        :    65.92855418    
 total calculated charge     :    45.10966636    
 total charge                :    82.00000000    
 error                       :    36.89033364    

Moments :
 interstitial                :  -0.1315832067E-23  0.2275681528E-23  0.2031319982E-23
 muffin-tins
  species :    1 (Pb)
   atom    1                 :   0.3029850421E-22  0.8260873390E-22 -0.1611995400E-22
 total in muffin-tins        :   0.3029850421E-22  0.8260873390E-22 -0.1611995400E-22
 total moment                :   0.2898267214E-22  0.8488441542E-22 -0.1408863402E-22

RMS change in Kohn-Sham potential (target) :   0.4950826608E-02 (  0.1000000000E-05)
Absolute change in total energy (target)   :   0.7481351394     (  0.1000000000E-03)

Time (CPU seconds) :        27.04

+--------------------+
| Loop number :   15 |
+--------------------+

Energies :
 Fermi                       :      36.6570530618    
 sum of eigenvalues          :     -5326.98353948    
 electron kinetic            :      28199.9621743    
 core electron kinetic       :      24624.8002035    
 Coulomb                     :     -49054.5021819    
 Coulomb potential           :     -32766.6807763    
 nuclear-nuclear             :     -12036.0705396    
 electron-nuclear            :     -41270.1825084    
 Hartree                     :      4251.75086606    
 Madelung                    :     -32671.1617938    
 xc potential                :     -760.264937454    
 xc effective B-field        :    -0.308959755741E-07
 external B-field            :      0.00000000000    
 exchange                    :     -561.673537161    
 correlation                 :     -10.5645222073    
 electron entropic           :    -0.620215532096E-04
 total energy                :     -21426.7781290    
 (external B-field energy excluded from total)

Density of states at Fermi energy :    21.97265607    
 (states/Hartree/unit cell)

Estimated indirect band gap :   0.2577606919E-01
 from k-point     11 to k-point     22
Estimated direct band gap   :   0.4664246846    
 at k-point     13

Charges :
 core                        :    68.00000000    
 valence                     :    14.00000000    
 interstitial                :    16.07145690    
 muffin-tins (core leakage)
  species :    1 (Pb)
   atom    1                 :    65.92854310     (   36.89106810    )
 total in muffin-tins        :    65.92854310    
 total calculated charge     :    45.10963418    
 total charge                :    82.00000000    
 error                       :    36.89036582    

Moments :
 interstitial                :  -0.4427089106E-23 -0.5307598099E-23 -0.4952817432E-24
 muffin-tins
  species :    1 (Pb)
   atom    1                 :   0.1652926840E-22 -0.4425122525E-22  0.7595755409E-22
 total in muffin-tins        :   0.1652926840E-22 -0.4425122525E-22  0.7595755409E-22
 total moment                :   0.1210217929E-22 -0.4955882335E-22  0.7546227235E-22

RMS change in Kohn-Sham potential (target) :   0.2225156987E-02 (  0.1000000000E-05)
Absolute change in total energy (target)   :   0.3736512858     (  0.1000000000E-03)

Time (CPU seconds) :        28.79

+--------------------+
| Loop number :   16 |
+--------------------+

Energies :
 Fermi                       :      36.6580787028    
 sum of eigenvalues          :     -5326.88233284    
 electron kinetic            :      28200.0942925    
 core electron kinetic       :      24624.9054491    
 Coulomb                     :     -49054.5394314    
 Coulomb potential           :     -32766.7111604    
 nuclear-nuclear             :     -12036.0705396    
 electron-nuclear            :     -41270.2266233    
 Hartree                     :      4251.75773143    
 Madelung                    :     -32671.1838512    
 xc potential                :     -760.265464883    
 xc effective B-field        :    -0.308948879807E-07
 external B-field            :      0.00000000000    
 exchange                    :     -561.673931737    
 correlation                 :     -10.5645235028    
 electron entropic           :    -0.620215532082E-04
 total energy                :     -21426.6836562    
 (external B-field energy excluded from total)

Density of states at Fermi energy :    21.97265607    
 (states/Hartree/unit cell)

Estimated indirect band gap :   0.2577391148E-01
 from k-point     11 to k-point     22
Estimated direct band gap   :   0.4664157038    
 at k-point     13

Charges :
 core                        :    68.00000000    
 valence                     :    14.00000000    
 interstitial                :    16.07142955    
 muffin-tins (core leakage)
  species :    1 (Pb)
   atom    1                 :    65.92857045     (   36.89102600    )
 total in muffin-tins        :    65.92857045    
 total calculated charge     :    45.10967623    
 total charge                :    82.00000000    
 error                       :    36.89032377    

Moments :
 interstitial                :   0.2005359107E-23  0.3904512114E-24 -0.6075572267E-24
 muffin-tins
  species :    1 (Pb)
   atom    1                 :  -0.2245657660E-22  0.8915662594E-23 -0.8119025371E-22
 total in muffin-tins        :  -0.2245657660E-22  0.8915662594E-23 -0.8119025371E-22
 total moment                :  -0.2045121750E-22  0.9306113806E-23 -0.8179781094E-22

RMS change in Kohn-Sham potential (target) :   0.9101475806E-03 (  0.1000000000E-05)
Absolute change in total energy (target)   :   0.1878856477     (  0.1000000000E-03)

Time (CPU seconds) :        30.54

+--------------------+
| Loop number :   17 |
+--------------------+

Energies :
 Fermi                       :      36.6584540749    
 sum of eigenvalues          :     -5326.83716149    
 electron kinetic            :      28200.1515705    
 core electron kinetic       :      24624.9517322    
 Coulomb                     :     -49054.5529645    
 Coulomb potential           :     -32766.7230493    
 nuclear-nuclear             :     -12036.0705396    
 electron-nuclear            :     -41270.2418007    
 Hartree                     :      4251.75937570    
 Madelung                    :     -32671.1914399    
 xc potential                :     -760.265682748    
 xc effective B-field        :    -0.308943753848E-07
 external B-field            :      0.00000000000    
 exchange                    :     -561.674094695    
 correlation                 :     -10.5645240739    
 electron entropic           :    -0.620215532022E-04
 total energy                :     -21426.6400748    
 (external B-field energy excluded from total)

Density of states at Fermi energy :    21.97265606    
 (states/Hartree/unit cell)

Estimated indirect band gap :   0.2577234698E-01
 from k-point     11 to k-point     22
Estimated direct band gap   :   0.4664106258    
 at k-point     13

Charges :
 core                        :    68.00000000    
 valence                     :    14.00000000    
 interstitial                :    16.07140766    
 muffin-tins (core leakage)
  species :    1 (Pb)
   atom    1                 :    65.92859234     (   36.89098866    )
 total in muffin-tins        :    65.92859234    
 total calculated charge     :    45.10971354    
 total charge                :    82.00000000    
 error                       :    36.89028646    

Moments :
 interstitial                :   0.3465747722E-24  0.1741030066E-23 -0.1214861735E-23
 muffin-tins
  species :    1 (Pb)
   atom    1                 :  -0.1162506465E-22  0.1529685049E-22 -0.4304337582E-22
 total in muffin-tins        :  -0.1162506465E-22  0.1529685049E-22 -0.4304337582E-22
 total moment                :  -0.1127848988E-22  0.1703788056E-22 -0.4425823756E-22

RMS change in Kohn-Sham potential (target) :   0.3420937138E-03 (  0.1000000000E-05)
Absolute change in total energy (target)   :   0.9055283392E-01 (  0.1000000000E-03)

Time (CPU seconds) :        32.29

+--------------------+
| Loop number :   18 |
+--------------------+

Energies :
 Fermi                       :      36.6585813284    
 sum of eigenvalues          :     -5326.81925580    
 electron kinetic            :      28200.1736440    
 core electron kinetic       :      24624.9693674    
 Coulomb                     :     -49054.5570803    
 Coulomb potential           :     -32766.7271445    
 nuclear-nuclear             :     -12036.0705396    
 electron-nuclear            :     -41270.2459369    
 Hartree                     :      4251.75939622    
 Madelung                    :     -32671.1935080    
 xc potential                :     -760.265755272    
 xc effective B-field        :    -0.308941887555E-07
 external B-field            :      0.00000000000    
 exchange                    :     -561.674148936    
 correlation                 :     -10.5645242723    
 electron entropic           :    -0.620215532000E-04
 total energy                :     -21426.6221715    
 (external B-field energy excluded from total)

Density of states at Fermi energy :    21.97265606    
 (states/Hartree/unit cell)

Estimated indirect band gap :   0.2577158996E-01
 from k-point     11 to k-point     22
Estimated direct band gap   :   0.4664087509    
 at k-point     13

Charges :
 core                        :    68.00000000    
 valence                     :    14.00000000    
 interstitial                :    16.07139694    
 muffin-tins (core leakage)
  species :    1 (Pb)
   atom    1                 :    65.92860306     (   36.89096925    )
 total in muffin-tins        :    65.92860306    
 total calculated charge     :    45.10973291    
 total charge                :    82.00000000    
 error                       :    36.89026709    

Moments :
 interstitial                :  -0.2581738624E-23 -0.5107954304E-23 -0.2569964950E-23
 muffin-tins
  species :    1 (Pb)
   atom    1                 :   0.3286595958E-22  0.9044556138E-23  0.5363747149E-22
 total in muffin-tins        :   0.3286595958E-22  0.9044556138E-23  0.5363747149E-22
 total moment                :   0.3028422096E-22  0.3936601834E-23  0.5106750654E-22

RMS change in Kohn-Sham potential (target) :   0.1298105980E-03 (  0.1000000000E-05)
Absolute change in total energy (target)   :   0.4054145840E-01 (  0.1000000000E-03)

Time (CPU seconds) :        34.04

+--------------------+
| Loop number :   19 |
+--------------------+

Energies :
 Fermi                       :      36.6586209118    
 sum of eigenvalues          :     -5326.81290123    
 electron kinetic            :      28200.1809654    
 core electron kinetic       :      24624.9748837    
 Coulomb                     :     -49054.5577385    
 Coulomb potential           :     -32766.7280969    
 nuclear-nuclear             :     -12036.0705396    
 electron-nuclear            :     -41270.2463009    
 Hartree                     :      4251.75910199    
 Madelung                    :     -32671.1936900    
 xc potential                :     -760.265769646    
 xc effective B-field        :    -0.308941394752E-07
 external B-field            :      0.00000000000    
 exchange                    :     -561.674159682    
 correlation                 :     -10.5645243151    
 electron entropic           :    -0.620215532058E-04
 total energy                :     -21426.6155191    
 (external B-field energy excluded from total)

Density of states at Fermi energy :    21.97265606    
 (states/Hartree/unit cell)

Estimated indirect band gap :   0.2577130848E-01
 from k-point     11 to k-point     22
Estimated direct band gap   :   0.4664083702    
 at k-point     13

Charges :
 core                        :    68.00000000    
 valence                     :    14.00000000    
 interstitial                :    16.07139319    
 muffin-tins (core leakage)
  species :    1 (Pb)
   atom    1                 :    65.92860681     (   36.89096201    )
 total in muffin-tins        :    65.92860681    
 total calculated charge     :    45.10974016    
 total charge                :    82.00000000    
 error                       :    36.89025984    

Moments :
 interstitial                :   0.1216294020E-23  0.4192735418E-23 -0.1409887078E-23
 muffin-tins
  species :    1 (Pb)
   atom    1                 :   0.6790578685E-22  0.5103571323E-22 -0.3245799708E-22
 total in muffin-tins        :   0.6790578685E-22  0.5103571323E-22 -0.3245799708E-22
 total moment                :   0.6912208087E-22  0.5522844865E-22 -0.3386788416E-22

RMS change in Kohn-Sham potential (target) :   0.5763501464E-04 (  0.1000000000E-05)
Absolute change in total energy (target)   :   0.1678773965E-01 (  0.1000000000E-03)

Time (CPU seconds) :        35.79

+--------------------+
| Loop number :   20 |
+--------------------+

Energies :
 Fermi                       :      36.6586318393    
 sum of eigenvalues          :     -5326.81085144    
 electron kinetic            :      28200.1829872    
 core electron kinetic       :      24624.9761589    
 Coulomb                     :     -49054.5574694    
 Coulomb potential           :     -32766.7280717    
 nuclear-nuclear             :     -12036.0705396    
 electron-nuclear            :     -41270.2457880    
 Hartree                     :      4251.75885818    
 Madelung                    :     -32671.1934336    
 xc potential                :     -760.265766975    
 xc effective B-field        :    -0.308941347746E-07
 external B-field            :      0.00000000000    
 exchange                    :     -561.674157682    
 correlation                 :     -10.5645243106    
 electron entropic           :    -0.620215532004E-04
 total energy                :     -21426.6132262    
 (external B-field energy excluded from total)

Density of states at Fermi energy :    21.97265606    
 (states/Hartree/unit cell)

Estimated indirect band gap :   0.2577123025E-01
 from k-point     11 to k-point     22
Estimated direct band gap   :   0.4664084554    
 at k-point     13

Charges :
 core                        :    68.00000000    
 valence                     :    14.00000000    
 interstitial                :    16.07139227    
 muffin-tins (core leakage)
  species :    1 (Pb)
   atom    1                 :    65.92860773     (   36.89095996    )
 total in muffin-tins        :    65.92860773    
 total calculated charge     :    45.10974221    
 total charge                :    82.00000000    
 error                       :    36.89025779    

Moments :
 interstitial                :  -0.7649788903E-24 -0.4907125841E-23 -0.7203179329E-24
 muffin-tins
  species :    1 (Pb)
   atom    1                 :   0.2183658421E-22 -0.1277644592E-22 -0.4424753066E-22
 total in muffin-tins        :   0.2183658421E-22 -0.1277644592E-22 -0.4424753066E-22
 total moment                :   0.2107160532E-22 -0.1768357176E-22 -0.4496784859E-22

RMS change in Kohn-Sham potential (target) :   0.2723003613E-04 (  0.1000000000E-05)
Absolute change in total energy (target)   :   0.6489878087E-02 (  0.1000000000E-03)

Time (CPU seconds) :        37.55

+--------------------+
| Loop number :   21 |
+--------------------+

Energies :
 Fermi                       :      36.6586352740    
 sum of eigenvalues          :     -5326.81018821    
 electron kinetic            :      28200.1834192    
 core electron kinetic       :      24624.9763254    
 Coulomb                     :     -49054.5570836    
 Coulomb potential           :     -32766.7278461    
 nuclear-nuclear             :     -12036.0705396    
 electron-nuclear            :     -41270.2452420    
 Hartree                     :      4251.75869799    
 Madelung                    :     -32671.1931606    
 xc potential                :     -760.265761352    
 xc effective B-field        :    -0.308941397794E-07
 external B-field            :      0.00000000000    
 exchange                    :     -561.674153475    
 correlation                 :     -10.5645242968    
 electron entropic           :    -0.620215532082E-04
 total energy                :     -21426.6124042    
 (external B-field energy excluded from total)

Density of states at Fermi energy :    21.97265607    
 (states/Hartree/unit cell)

Estimated indirect band gap :   0.2577121893E-01
 from k-point     11 to k-point     22
Estimated direct band gap   :   0.4664086286    
 at k-point     13

Charges :
 core                        :    68.00000000    
 valence                     :    14.00000000    
 interstitial                :    16.07139224    
 muffin-tins (core leakage)
  species :    1 (Pb)
   atom    1                 :    65.92860776     (   36.89095962    )
 total in muffin-tins        :    65.92860776    
 total calculated charge     :    45.10974253    
 total charge                :    82.00000000    
 error                       :    36.89025747    

Moments :
 interstitial                :  -0.3194864319E-23  0.6034455393E-24  0.5421556286E-23
 muffin-tins
  species :    1 (Pb)
   atom    1                 :   0.3142864740E-22  0.2281850326E-22 -0.2978557799E-22
 total in muffin-tins        :   0.3142864740E-22  0.2281850326E-22 -0.2978557799E-22
 total moment                :   0.2823378308E-22  0.2342194880E-22 -0.2436402170E-22

RMS change in Kohn-Sham potential (target) :   0.1139978881E-04 (  0.1000000000E-05)
Absolute change in total energy (target)   :   0.2444492238E-02 (  0.1000000000E-03)

Time (CPU seconds) :        39.30

+--------------------+
| Loop number :   22 |
+--------------------+

Energies :
 Fermi                       :      36.6586356373    
 sum of eigenvalues          :     -5326.80999255    
 electron kinetic            :      28200.1835167    
 core electron kinetic       :      24624.9763316    
 Coulomb                     :     -49054.5569227    
 Coulomb potential           :     -32766.7277503    
 nuclear-nuclear             :     -12036.0705396    
 electron-nuclear            :     -41270.2450159    
 Hartree                     :      4251.75863283    
 Madelung                    :     -32671.1930475    
 xc potential                :     -760.265758958    
 xc effective B-field        :    -0.308941433996E-07
 external B-field            :      0.00000000000    
 exchange                    :     -561.674151684    
 correlation                 :     -10.5645242908    
 electron entropic           :    -0.620215532035E-04
 total energy                :     -21426.6121440    
 (external B-field energy excluded from total)

Density of states at Fermi energy :    21.97265606    
 (states/Hartree/unit cell)

Estimated indirect band gap :   0.2577122290E-01
 from k-point     11 to k-point     22
Estimated direct band gap   :   0.4664087047    
 at k-point     13

Charges :
 core                        :    68.00000000    
 valence                     :    14.00000000    
 interstitial                :    16.07139224    
 muffin-tins (core leakage)
  species :    1 (Pb)
   atom    1                 :    65.92860776     (   36.89095953    )
 total in muffin-tins        :    65.92860776    
 total calculated charge     :    45.10974264    
 total charge                :    82.00000000    
 error                       :    36.89025736    

Moments :
 interstitial                :  -0.1111605279E-24 -0.4227917955E-23 -0.3935873827E-23
 muffin-tins
  species :    1 (Pb)
   atom    1                 :   0.1008150459E-22  0.4460287898E-22  0.5734783768E-23
 total in muffin-tins        :   0.1008150459E-22  0.4460287898E-22  0.5734783768E-23
 total moment                :   0.9970344062E-23  0.4037496103E-22  0.1798909941E-23

RMS change in Kohn-Sham potential (target) :   0.4344845296E-05 (  0.1000000000E-05)
Absolute change in total energy (target)   :   0.8713375173E-03 (  0.1000000000E-03)

Time (CPU seconds) :        41.04

+--------------------+
| Loop number :   23 |
+--------------------+

Energies :
 Fermi                       :      36.6586352473    
 sum of eigenvalues          :     -5326.80994449    
 electron kinetic            :      28200.1835463    
 core electron kinetic       :      24624.9763294    
 Coulomb                     :     -49054.5568889    
 Coulomb potential           :     -32766.7277324    
 nuclear-nuclear             :     -12036.0705396    
 electron-nuclear            :     -41270.2449663    
 Hartree                     :      4251.75861696    
 Madelung                    :     -32671.1930227    
 xc potential                :     -760.265758445    
 xc effective B-field        :    -0.308941450612E-07
 external B-field            :      0.00000000000    
 exchange                    :     -561.674151301    
 correlation                 :     -10.5645242895    
 electron entropic           :    -0.620215532037E-04
 total energy                :     -21426.6120802    
 (external B-field energy excluded from total)

Density of states at Fermi energy :    21.97265606    
 (states/Hartree/unit cell)

Estimated indirect band gap :   0.2577122570E-01
 from k-point     11 to k-point     22
Estimated direct band gap   :   0.4664087263    
 at k-point     13

Charges :
 core                        :    68.00000000    
 valence                     :    14.00000000    
 interstitial                :    16.07139224    
 muffin-tins (core leakage)
  species :    1 (Pb)
   atom    1                 :    65.92860776     (   36.89095947    )
 total in muffin-tins        :    65.92860776    
 total calculated charge     :    45.10974267    
 total charge                :    82.00000000    
 error                       :    36.89025733    

Moments :
 interstitial                :   0.3370364763E-23 -0.1574210675E-23 -0.2145510763E-23
 muffin-tins
  species :    1 (Pb)
   atom    1                 :   0.6428577030E-23  0.1071654599E-22 -0.7012729799E-22
 total in muffin-tins        :   0.6428577030E-23  0.1071654599E-22 -0.7012729799E-22
 total moment                :   0.9798941793E-23  0.9142335318E-23 -0.7227280875E-22

RMS change in Kohn-Sham potential (target) :   0.1587339921E-05 (  0.1000000000E-05)
Absolute change in total energy (target)   :   0.2816336237E-03 (  0.1000000000E-03)

Time (CPU seconds) :        42.80

+--------------------+
| Loop number :   24 |
+--------------------+

Energies :
 Fermi                       :      36.6586349593    
 sum of eigenvalues          :     -5326.80993272    
 electron kinetic            :      28200.1835584    
 core electron kinetic       :      24624.9763303    
 Coulomb                     :     -49054.5568863    
 Coulomb potential           :     -32766.7277327    
 nuclear-nuclear             :     -12036.0705396    
 electron-nuclear            :     -41270.2449608    
 Hartree                     :      4251.75861406    
 Madelung                    :     -32671.1930200    
 xc potential                :     -760.265758382    
 xc effective B-field        :    -0.308941457976E-07
 external B-field            :      0.00000000000    
 exchange                    :     -561.674151254    
 correlation                 :     -10.5645242894    
 electron entropic           :    -0.620215532102E-04
 total energy                :     -21426.6120655    
 (external B-field energy excluded from total)

Density of states at Fermi energy :    21.97265607    
 (states/Hartree/unit cell)

Estimated indirect band gap :   0.2577122994E-01
 from k-point     11 to k-point     22
Estimated direct band gap   :   0.4664087321    
 at k-point     13

Charges :
 core                        :    68.00000000    
 valence                     :    14.00000000    
 interstitial                :    16.07139223    
 muffin-tins (core leakage)
  species :    1 (Pb)
   atom    1                 :    65.92860777     (   36.89095945    )
 total in muffin-tins        :    65.92860777    
 total calculated charge     :    45.10974271    
 total charge                :    82.00000000    
 error                       :    36.89025729    

Moments :
 interstitial                :   0.2316551198E-24 -0.1054544979E-23 -0.1335642065E-23
 muffin-tins
  species :    1 (Pb)
   atom    1                 :  -0.5026213144E-22  0.6089758513E-22 -0.3044724631E-22
 total in muffin-tins        :  -0.5026213144E-22  0.6089758513E-22 -0.3044724631E-22
 total moment                :  -0.5003047632E-22  0.5984304015E-22 -0.3178288838E-22

RMS change in Kohn-Sham potential (target) :   0.5496996231E-06 (  0.1000000000E-05)
Absolute change in total energy (target)   :   0.8507477469E-04 (  0.1000000000E-03)

Convergence targets achieved

Time (CPU seconds) :        44.55

+--------------------+
| Loop number :   25 |
+--------------------+

Energies :
 Fermi                       :      36.6586348256    
 sum of eigenvalues          :     -5326.80993065    
 electron kinetic            :      28200.1835613    
 core electron kinetic       :      24624.9763300    
 Coulomb                     :     -49054.5568867    
 Coulomb potential           :     -32766.7277336    
 nuclear-nuclear             :     -12036.0705396    
 electron-nuclear            :     -41270.2449608    
 Hartree                     :      4251.75861361    
 Madelung                    :     -32671.1930200    
 xc potential                :     -760.265758386    
 xc effective B-field        :    -0.308941461037E-07
 external B-field            :      0.00000000000    
 exchange                    :     -561.674151257    
 correlation                 :     -10.5645242894    
 electron entropic           :    -0.620215532081E-04
 total energy                :     -21426.6120630    
 (external B-field energy excluded from total)

Density of states at Fermi energy :    21.97265607    
 (states/Hartree/unit cell)

Estimated indirect band gap :   0.2577123173E-01
 from k-point     11 to k-point     22
Estimated direct band gap   :   0.4664087347    
 at k-point     13

Charges :
 core                        :    68.00000000    
 valence                     :    14.00000000    
 interstitial                :    16.07139223    
 muffin-tins (core leakage)
  species :    1 (Pb)
   atom    1                 :    65.92860777     (   36.89095944    )
 total in muffin-tins        :    65.92860777    
 total calculated charge     :    45.10974271    
 total charge                :    82.00000000    
 error                       :    36.89025729    

Moments :
 interstitial                :  -0.2036577730E-24  0.3562879391E-23  0.9701307514E-24
 muffin-tins
  species :    1 (Pb)
   atom    1                 :   0.9366823665E-23  0.1816984591E-22  0.7360424395E-22
 total in muffin-tins        :   0.9366823665E-23  0.1816984591E-22  0.7360424395E-22
 total moment                :   0.9163165892E-23  0.2173272530E-22  0.7457437471E-22

+------------------------------+
| Self-consistent loop stopped |
+------------------------------+

Wrote STATE.OUT

Timings (CPU seconds) :
 initialisation                        :         2.91
 Hamiltonian and overlap matrix set up :         1.75
 first-variational eigenvalue equation :         1.16
 second-variational calculation        :        26.99
 charge density calculation            :        11.35
 potential calculation                 :         2.14
 total                                 :        46.30

+----------------------------+
| Elk version 4.0.15 stopped |
+----------------------------+
