+----------------------------+
| Elk version 4.0.15 started |
+----------------------------+

Date (YYYY-MM-DD) : 2019-01-25
Time (hh:mm:ss)   : 08:27:43

All units are atomic (Hartree, Bohr, etc.)

+-------------------------------------------------+
| Ground-state run starting from atomic densities |
+-------------------------------------------------+

Lattice vectors :
   0.000000000      0.5000000000      0.5000000000    
  0.5000000000       0.000000000      0.5000000000    
  0.5000000000      0.5000000000       0.000000000    

Reciprocal lattice vectors :
  -6.283185307       6.283185307       6.283185307    
   6.283185307      -6.283185307       6.283185307    
   6.283185307       6.283185307      -6.283185307    

Unit cell volume      :   0.2500000000    
Brillouin zone volume :    992.2008538    

Species :    1 (Pb)
 parameters loaded from : Pb.in
 name : lead
 nuclear charge    :   -82.00000000    
 electronic charge :    82.00000000    
 atomic mass :    377702.4940    
 muffin-tin radius :   0.3285533906    
 number of radial points in muffin-tin :    697
 number on inner part of muffin-tin    :    469
 atomic positions (lattice), magnetic fields (Cartesian) :
   1 :   0.00000000  0.00000000  0.00000000    0.00000000  0.00000000  0.00000000

Total number of atoms per unit cell :    1

Spin treatment :
 spin-polarised
 spin-orbit coupling
 global magnetic field (Cartesian) :    0.000000000       0.000000000       0.000000000    
 non-collinear magnetisation

Number of Bravais lattice symmetries :   48
Number of crystal symmetries         :   48
Crystal has inversion symmetry
Real symmetric eigensolver will be used

k-point grid :      8     8     8
k-point offset :    0.000000000       0.000000000       0.000000000    
k-point set is reduced with full crystal symmetry group
Total number of k-points :       29

Muffin-tin radius times maximum |G+k| :    8.000000000    
 using average radius
Maximum |G+k| for APW functions       :    24.34916281    
Maximum (1/2)|G+k|^2                  :    296.4408648    
Maximum |G| for potential and density :    48.69832662    
Constant for pseudocharge density :    4
Radial integration step length :    4

G-vector grid sizes :     12    12    12
Number of G-vectors :      531

Maximum angular momentum used for
 APW functions                      :    8
 H and O matrix elements outer loop :    7
 outer part of muffin-tin           :    7
 inner part of muffin-tin           :    3

Total nuclear charge    :   -82.00000000    
Total core charge       :    68.00000000    
Total valence charge    :    14.00000000    
Total excess charge     :    0.000000000    
Total electronic charge :    82.00000000    

Effective Wigner radius, r_s :   0.8995235040E-01

Number of empty states         :    8
Total number of valence states :   32
Total number of core states    :   68

Total number of local-orbitals :   15

Exchange-correlation functional :      3     0     0
 Perdew-Wang/Ceperley-Alder, Phys. Rev. B 45, 13244 (1992)
 Local density approximation (LDA)

Smearing type :    3
 Fermi-Dirac
Smearing width :   0.1000000000E-02
Effective electronic temperature (K) :    315.7750425    

Mixing type :    1
 Adaptive linear mixing

Density and potential initialised from atomic data

+------------------------------+
| Self-consistent loop started |
+------------------------------+

+--------------------+
| Loop number :    1 |
+--------------------+

Energies :
 Fermi                       :      24.4203883265    
 sum of eigenvalues          :     -5865.46276311    
 electron kinetic            :      28456.6690013    
 core electron kinetic       :      25280.4976841    
 Coulomb                     :     -50072.0064409    
 Coulomb potential           :     -33545.4302888    
 nuclear-nuclear             :     -12036.0705396    
 electron-nuclear            :     -42526.4415139    
 Hartree                     :      4490.50561257    
 Madelung                    :     -33299.2912965    
 xc potential                :     -776.701475619    
 xc effective B-field        :    -0.149862651466E-07
 external B-field            :      0.00000000000    
 exchange                    :     -573.969112375    
 correlation                 :     -10.6065194326    
 electron entropic           :    -0.714303030033E-04
 total energy                :     -22199.9131429    
 (external B-field energy excluded from total)

Density of states at Fermi energy :    24.67827484    
 (states/Hartree/unit cell)

Estimated indirect band gap :   0.2612898986E-02
 from k-point      6 to k-point     22
Estimated direct band gap   :   0.4392693241    
 at k-point      6

Charges :
 core                        :    68.00000000    
 valence                     :    14.00000000    
 interstitial                :    14.92502303    
 muffin-tins (core leakage)
  species :    1 (Pb)
   atom    1                 :    67.07497697     (   35.23148177    )
 total in muffin-tins        :    67.07497697    
 total calculated charge     :    46.76944039    
 total charge                :    82.00000000    
 error                       :    35.23055961    

Moments :
 interstitial                :   0.7883800951E-28  0.2315048354E-28  0.7412840401E-30
 muffin-tins
  species :    1 (Pb)
   atom    1                 :   0.6528997161E-23  0.1808279949E-22  0.2835160972E-22
 total in muffin-tins        :   0.6528997161E-23  0.1808279949E-22  0.2835160972E-22
 total moment                :   0.6529076000E-23  0.1808282264E-22  0.2835161046E-22

Time (CPU seconds) :         4.36

+--------------------+
| Loop number :    2 |
+--------------------+

Energies :
 Fermi                       :      26.1126511805    
 sum of eigenvalues          :     -5789.58468892    
 electron kinetic            :      28421.3098844    
 core electron kinetic       :      25152.8162349    
 Coulomb                     :     -49930.4668350    
 Coulomb potential           :     -33436.4724459    
 nuclear-nuclear             :     -12036.0705396    
 electron-nuclear            :     -42352.3201450    
 Hartree                     :      4457.92384957    
 Madelung                    :     -33212.2306121    
 xc potential                :     -774.422127390    
 xc effective B-field        :    -0.169620883675E-07
 external B-field            :      0.00000000000    
 exchange                    :     -572.263944862    
 correlation                 :     -10.6007889531    
 electron entropic           :    -0.620664139288E-04
 total energy                :     -22092.0217465    
 (external B-field energy excluded from total)

Density of states at Fermi energy :    21.97586513    
 (states/Hartree/unit cell)

Estimated indirect band gap :   0.2102840036E-01
 from k-point      6 to k-point     22
Estimated direct band gap   :   0.4926211446    
 at k-point      6

Charges :
 core                        :    68.00000000    
 valence                     :    14.00000000    
 interstitial                :    15.07373272    
 muffin-tins (core leakage)
  species :    1 (Pb)
   atom    1                 :    66.92626728     (   35.47284456    )
 total in muffin-tins        :    66.92626728    
 total calculated charge     :    46.52805235    
 total charge                :    82.00000000    
 error                       :    35.47194765    

Moments :
 interstitial                :  -0.4959852129E-25  0.1026592421E-24  0.4691456055E-25
 muffin-tins
  species :    1 (Pb)
   atom    1                 :  -0.2921275298E-22  0.1350302104E-22  0.3758461498E-22
 total in muffin-tins        :  -0.2921275298E-22  0.1350302104E-22  0.3758461498E-22
 total moment                :  -0.2926235151E-22  0.1360568028E-22  0.3763152954E-22

RMS change in Kohn-Sham potential (target) :    14.81968012     (  0.1000000000E-05)
Absolute change in total energy (target)   :    107.8913963     (  0.1000000000E-03)

Time (CPU seconds) :         6.02

+--------------------+
| Loop number :    3 |
+--------------------+

Energies :
 Fermi                       :      28.2826192764    
 sum of eigenvalues          :     -5692.55897027    
 electron kinetic            :      28371.8742007    
 core electron kinetic       :      25009.8358068    
 Coulomb                     :     -49743.6836651    
 Coulomb potential           :     -33293.0078066    
 nuclear-nuclear             :     -12036.0705396    
 electron-nuclear            :     -42122.2184445    
 Hartree                     :      4414.60531892    
 Madelung                    :     -33097.1797618    
 xc potential                :     -771.425364360    
 xc effective B-field        :    -0.195487172736E-07
 external B-field            :      0.00000000000    
 exchange                    :     -570.022102636    
 correlation                 :     -10.5932289279    
 electron entropic           :    -0.620342125472E-04
 total energy                :     -21952.4248580    
 (external B-field energy excluded from total)

Density of states at Fermi energy :    21.97345584    
 (states/Hartree/unit cell)

Estimated indirect band gap :   0.5468495421E-01
 from k-point      6 to k-point     22
Estimated direct band gap   :   0.5716209813    
 at k-point      6

Charges :
 core                        :    68.00000000    
 valence                     :    14.00000000    
 interstitial                :    15.26948502    
 muffin-tins (core leakage)
  species :    1 (Pb)
   atom    1                 :    66.73051498     (   35.77692554    )
 total in muffin-tins        :    66.73051498    
 total calculated charge     :    46.22393554    
 total charge                :    82.00000000    
 error                       :    35.77606446    

Moments :
 interstitial                :  -0.4825471086E-24 -0.1685340327E-24  0.1125036517E-24
 muffin-tins
  species :    1 (Pb)
   atom    1                 :  -0.1899514022E-22  0.2545495070E-22  0.1711422796E-22
 total in muffin-tins        :  -0.1899514022E-22  0.2545495070E-22  0.1711422796E-22
 total moment                :  -0.1947768732E-22  0.2528641667E-22  0.1722673161E-22

RMS change in Kohn-Sham potential (target) :    11.47260093     (  0.1000000000E-05)
Absolute change in total energy (target)   :    166.5697376     (  0.1000000000E-03)

Time (CPU seconds) :         7.78

+--------------------+
| Loop number :    4 |
+--------------------+

Energies :
 Fermi                       :      30.5577328930    
 sum of eigenvalues          :     -5591.35337394    
 electron kinetic            :      28316.2470179    
 core electron kinetic       :      24874.7831758    
 Coulomb                     :     -49543.1739438    
 Coulomb potential           :     -33139.3815323    
 nuclear-nuclear             :     -12036.0705396    
 electron-nuclear            :     -41874.8252762    
 Hartree                     :      4367.72187197    
 Madelung                    :     -32973.4831777    
 xc potential                :     -768.218859574    
 xc effective B-field        :    -0.223332378572E-07
 external B-field            :      0.00000000000    
 exchange                    :     -567.623385275    
 correlation                 :     -10.5850994997    
 electron entropic           :    -0.621528333177E-04
 total energy                :     -21805.1354728    
 (external B-field energy excluded from total)

Density of states at Fermi energy :    21.98325202    
 (states/Hartree/unit cell)

Estimated indirect band gap :   0.4638626641E-01
 from k-point     13 to k-point     22
Estimated direct band gap   :   0.6687873884    
 at k-point      6

Charges :
 core                        :    68.00000000    
 valence                     :    14.00000000    
 interstitial                :    15.48148674    
 muffin-tins (core leakage)
  species :    1 (Pb)
   atom    1                 :    66.51851326     (   36.09021998    )
 total in muffin-tins        :    66.51851326    
 total calculated charge     :    45.91059946    
 total charge                :    82.00000000    
 error                       :    36.08940054    

Moments :
 interstitial                :   0.1576520466E-24  0.4129635172E-24 -0.4422212525E-24
 muffin-tins
  species :    1 (Pb)
   atom    1                 :   0.5413470756E-23 -0.2293488671E-22 -0.4472409040E-22
 total in muffin-tins        :   0.5413470756E-23 -0.2293488671E-22 -0.4472409040E-22
 total moment                :   0.5571122802E-23 -0.2252192319E-22 -0.4516631165E-22

RMS change in Kohn-Sham potential (target) :    7.967539019     (  0.1000000000E-05)
Absolute change in total energy (target)   :    188.9318196     (  0.1000000000E-03)

Time (CPU seconds) :         9.54

+--------------------+
| Loop number :    5 |
+--------------------+

Energies :
 Fermi                       :      32.6040296622    
 sum of eigenvalues          :     -5501.11322868    
 electron kinetic            :      28264.6219703    
 core electron kinetic       :      24765.4992205    
 Coulomb                     :     -49361.3806347    
 Coulomb potential           :     -33000.4213447    
 nuclear-nuclear             :     -12036.0705396    
 electron-nuclear            :     -41650.1988456    
 Hartree                     :      4324.88875043    
 Madelung                    :     -32861.1699624    
 xc potential                :     -765.313854287    
 xc effective B-field        :    -0.248361130458E-07
 external B-field            :      0.00000000000    
 exchange                    :     -565.450248625    
 correlation                 :     -10.5776873497    
 electron entropic           :    -0.104500512488E-03
 total energy                :     -21672.7867049    
 (external B-field energy excluded from total)

Density of states at Fermi energy :    35.33450628    
 (states/Hartree/unit cell)

Estimated indirect band gap :   0.1500405219    
 from k-point     14 to k-point     22
Estimated direct band gap   :   0.2725810017    
 at k-point     13

Charges :
 core                        :    68.00000000    
 valence                     :    14.00000000    
 interstitial                :    15.67863139    
 muffin-tins (core leakage)
  species :    1 (Pb)
   atom    1                 :    66.32136861     (   36.36770562    )
 total in muffin-tins        :    66.32136861    
 total calculated charge     :    45.63307464    
 total charge                :    82.00000000    
 error                       :    36.36692536    

Moments :
 interstitial                :  -0.4915229164E-24 -0.1016660524E-23  0.1501288089E-23
 muffin-tins
  species :    1 (Pb)
   atom    1                 :   0.4689735580E-23 -0.6585487033E-22 -0.7392162537E-23
 total in muffin-tins        :   0.4689735580E-23 -0.6585487033E-22 -0.7392162537E-23
 total moment                :   0.4198212663E-23 -0.6687153085E-22 -0.5890874448E-23

RMS change in Kohn-Sham potential (target) :    4.874652277     (  0.1000000000E-05)
Absolute change in total energy (target)   :    179.5817229     (  0.1000000000E-03)

Time (CPU seconds) :        11.30

+--------------------+
| Loop number :    6 |
+--------------------+

Energies :
 Fermi                       :      34.2037821767    
 sum of eigenvalues          :     -5431.16922937    
 electron kinetic            :      28225.7302690    
 core electron kinetic       :      24690.2129250    
 Coulomb                     :     -49221.6803760    
 Coulomb potential           :     -32893.8260419    
 nuclear-nuclear             :     -12036.0705396    
 electron-nuclear            :     -41477.3936310    
 Hartree                     :      4291.78379455    
 Madelung                    :     -32774.7673551    
 xc potential                :     -763.073456416    
 xc effective B-field        :    -0.282072346019E-07
 external B-field            :      0.00000000000    
 exchange                    :     -563.774314568    
 correlation                 :     -10.5719281259    
 electron entropic           :    -0.632488805785E-04
 total energy                :     -21570.2964130    
 (external B-field energy excluded from total)

Density of states at Fermi energy :    22.16608353    
 (states/Hartree/unit cell)

Estimated indirect band gap :   0.6905858029E-02
 from k-point     11 to k-point     22
Estimated direct band gap   :   0.3556508226    
 at k-point     13

Charges :
 core                        :    68.00000000    
 valence                     :    14.00000000    
 interstitial                :    15.83698682    
 muffin-tins (core leakage)
  species :    1 (Pb)
   atom    1                 :    66.16301318     (   36.58231588    )
 total in muffin-tins        :    66.16301318    
 total calculated charge     :    45.41843095    
 total charge                :    82.00000000    
 error                       :    36.58156905    

Moments :
 interstitial                :   0.3965608180E-24  0.6821885767E-25 -0.4367427861E-24
 muffin-tins
  species :    1 (Pb)
   atom    1                 :   0.1746746641E-22  0.5293389791E-24 -0.2129624373E-22
 total in muffin-tins        :   0.1746746641E-22  0.5293389791E-24 -0.2129624373E-22
 total moment                :   0.1786402722E-22  0.5975578368E-24 -0.2173298651E-22

RMS change in Kohn-Sham potential (target) :    2.564160152     (  0.1000000000E-05)
Absolute change in total energy (target)   :    147.3857226     (  0.1000000000E-03)

Time (CPU seconds) :        13.04

+--------------------+
| Loop number :    7 |
+--------------------+

Energies :
 Fermi                       :      35.3048138271    
 sum of eigenvalues          :     -5383.71883884    
 electron kinetic            :      28202.8682779    
 core electron kinetic       :      24647.1066976    
 Coulomb                     :     -49131.2763749    
 Coulomb potential           :     -32824.9808098    
 nuclear-nuclear             :     -12036.0705396    
 electron-nuclear            :     -41365.4308609    
 Hartree                     :      4270.22502556    
 Madelung                    :     -32718.7859700    
 xc potential                :     -761.606306917    
 xc effective B-field        :    -0.295423512989E-07
 external B-field            :      0.00000000000    
 exchange                    :     -562.676837553    
 correlation                 :     -10.5681208504    
 electron entropic           :    -0.620228222437E-04
 total energy                :     -21501.6531174    
 (external B-field energy excluded from total)

Density of states at Fermi energy :    21.97275876    
 (states/Hartree/unit cell)

Estimated indirect band gap :   0.1445901425E-01
 from k-point     11 to k-point     22
Estimated direct band gap   :   0.4105286333    
 at k-point     13

Charges :
 core                        :    68.00000000    
 valence                     :    14.00000000    
 interstitial                :    15.94683949    
 muffin-tins (core leakage)
  species :    1 (Pb)
   atom    1                 :    66.05316051     (   36.72747913    )
 total in muffin-tins        :    66.05316051    
 total calculated charge     :    45.27324506    
 total charge                :    82.00000000    
 error                       :    36.72675494    

Moments :
 interstitial                :   0.1789907645E-23 -0.3026776233E-23  0.1711475766E-24
 muffin-tins
  species :    1 (Pb)
   atom    1                 :  -0.9646326237E-23 -0.2342637464E-22  0.2792924217E-22
 total in muffin-tins        :  -0.9646326237E-23 -0.2342637464E-22  0.2792924217E-22
 total moment                :  -0.7856418592E-23 -0.2645315087E-22  0.2810038975E-22

RMS change in Kohn-Sham potential (target) :    1.117496849     (  0.1000000000E-05)
Absolute change in total energy (target)   :    105.4897262     (  0.1000000000E-03)

Time (CPU seconds) :        14.81

+--------------------+
| Loop number :    8 |
+--------------------+

Energies :
 Fermi                       :      35.9751928121    
 sum of eigenvalues          :     -5355.41104489    
 electron kinetic            :      28193.5686980    
 core electron kinetic       :      24627.6884607    
 Coulomb                     :     -49082.8444219    
 Coulomb potential           :     -32788.1797139    
 nuclear-nuclear             :     -12036.0705396    
 electron-nuclear            :     -41305.3680507    
 Hartree                     :      4258.59416837    
 Madelung                    :     -32688.7545649    
 xc potential                :     -760.800028928    
 xc effective B-field        :    -0.302793311857E-07
 external B-field            :      0.00000000000    
 exchange                    :     -562.073735746    
 correlation                 :     -10.5660005404    
 electron entropic           :    -0.620215609548E-04
 total energy                :     -21461.9155222    
 (external B-field energy excluded from total)

Density of states at Fermi energy :    21.97265659    
 (states/Hartree/unit cell)

Estimated indirect band gap :   0.1987294478E-01
 from k-point     11 to k-point     22
Estimated direct band gap   :   0.4416407606    
 at k-point     13

Charges :
 core                        :    68.00000000    
 valence                     :    14.00000000    
 interstitial                :    16.01253781    
 muffin-tins (core leakage)
  species :    1 (Pb)
   atom    1                 :    65.98746219     (   36.81307925    )
 total in muffin-tins        :    65.98746219    
 total calculated charge     :    45.18763199    
 total charge                :    82.00000000    
 error                       :    36.81236801    

Moments :
 interstitial                :   0.1602128867E-23  0.3348127418E-24  0.2769472503E-24
 muffin-tins
  species :    1 (Pb)
   atom    1                 :   0.8998489050E-23 -0.5860936412E-22  0.5347582447E-22
 total in muffin-tins        :   0.8998489050E-23 -0.5860936412E-22  0.5347582447E-22
 total moment                :   0.1060061792E-22 -0.5827455138E-22  0.5375277172E-22

RMS change in Kohn-Sham potential (target) :   0.3786511664     (  0.1000000000E-05)
Absolute change in total energy (target)   :    66.11002681     (  0.1000000000E-03)

Time (CPU seconds) :        16.56

+--------------------+
| Loop number :    9 |
+--------------------+

Energies :
 Fermi                       :      36.3383570972    
 sum of eigenvalues          :     -5340.39403870    
 electron kinetic            :      28192.4401313    
 core electron kinetic       :      24621.8451536    
 Coulomb                     :     -49062.0445460    
 Coulomb potential           :     -32772.3985710    
 nuclear-nuclear             :     -12036.0705396    
 electron-nuclear            :     -41279.5494419    
 Hartree                     :      4253.57543545    
 Madelung                    :     -32675.8452605    
 xc potential                :     -760.435598964    
 xc effective B-field        :    -0.306514839696E-07
 external B-field            :      0.00000000000    
 exchange                    :     -561.801155513    
 correlation                 :     -10.5650212663    
 electron entropic           :    -0.620215536194E-04
 total energy                :     -21441.9706535    
 (external B-field energy excluded from total)

Density of states at Fermi energy :    21.97265612    
 (states/Hartree/unit cell)

Estimated indirect band gap :   0.2308022944E-01
 from k-point     11 to k-point     22
Estimated direct band gap   :   0.4568211556    
 at k-point     13

Charges :
 core                        :    68.00000000    
 valence                     :    14.00000000    
 interstitial                :    16.04640362    
 muffin-tins (core leakage)
  species :    1 (Pb)
   atom    1                 :    65.95359638     (   36.85702137    )
 total in muffin-tins        :    65.95359638    
 total calculated charge     :    45.14368444    
 total charge                :    82.00000000    
 error                       :    36.85631556    

Moments :
 interstitial                :   0.4488767841E-24  0.2578913347E-23 -0.3326929088E-23
 muffin-tins
  species :    1 (Pb)
   atom    1                 :   0.6509207025E-23 -0.1725281030E-22 -0.9774235634E-22
 total in muffin-tins        :   0.6509207025E-23 -0.1725281030E-22 -0.9774235634E-22
 total moment                :   0.6958083809E-23 -0.1467389696E-22 -0.1010692854E-21

RMS change in Kohn-Sham potential (target) :   0.9346464857E-01 (  0.1000000000E-05)
Absolute change in total energy (target)   :    36.47237537     (  0.1000000000E-03)

Time (CPU seconds) :        18.32

+--------------------+
| Loop number :   10 |
+--------------------+

Energies :
 Fermi                       :      36.5163518767    
 sum of eigenvalues          :     -5333.12082374    
 electron kinetic            :      28194.5738275    
 core electron kinetic       :      24621.7058540    
 Coulomb                     :     -49055.3639745    
 Coulomb potential           :     -32767.3901173    
 nuclear-nuclear             :     -12036.0705396    
 electron-nuclear            :     -41271.1967527    
 Hartree                     :      4251.90331770    
 Madelung                    :     -32671.6689159    
 xc potential                :     -760.304533980    
 xc effective B-field        :    -0.308167675301E-07
 external B-field            :      0.00000000000    
 exchange                    :     -561.703134668    
 correlation                 :     -10.5646544164    
 electron entropic           :    -0.620215533046E-04
 total energy                :     -21433.0579981    
 (external B-field energy excluded from total)

Density of states at Fermi energy :    21.97265609    
 (states/Hartree/unit cell)

Estimated indirect band gap :   0.2469201182E-01
 from k-point     11 to k-point     22
Estimated direct band gap   :   0.4631957277    
 at k-point     13

Charges :
 core                        :    68.00000000    
 valence                     :    14.00000000    
 interstitial                :    16.06161743    
 muffin-tins (core leakage)
  species :    1 (Pb)
   atom    1                 :    65.93838257     (   36.87687437    )
 total in muffin-tins        :    65.93838257    
 total calculated charge     :    45.12382945    
 total charge                :    82.00000000    
 error                       :    36.87617055    

Moments :
 interstitial                :   0.5509641669E-24 -0.3018452746E-24  0.4117617830E-23
 muffin-tins
  species :    1 (Pb)
   atom    1                 :   0.7399528068E-24  0.4498475005E-23  0.3344903851E-22
 total in muffin-tins        :   0.7399528068E-24  0.4498475005E-23  0.3344903851E-22
 total moment                :   0.1290916974E-23  0.4196629731E-23  0.3756665633E-22

RMS change in Kohn-Sham potential (target) :   0.3738195475E-01 (  0.1000000000E-05)
Absolute change in total energy (target)   :    18.03074926     (  0.1000000000E-03)

Time (CPU seconds) :        20.10

+--------------------+
| Loop number :   11 |
+--------------------+

Energies :
 Fermi                       :      36.5972910524    
 sum of eigenvalues          :     -5329.90366604    
 electron kinetic            :      28196.6984417    
 core electron kinetic       :      24622.6457783    
 Coulomb                     :     -49053.9810799    
 Coulomb potential           :     -32766.3341849    
 nuclear-nuclear             :     -12036.0705396    
 electron-nuclear            :     -41269.4868959    
 Hartree                     :      4251.57635548    
 Madelung                    :     -32670.8139875    
 xc potential                :     -760.267922789    
 xc effective B-field        :    -0.308788431552E-07
 external B-field            :     -0.00000000000    
 exchange                    :     -561.675760619    
 correlation                 :     -10.5645429842    
 electron entropic           :    -0.620215532408E-04
 total energy                :     -21429.5230039    
 (external B-field energy excluded from total)

Density of states at Fermi energy :    21.97265608    
 (states/Hartree/unit cell)

Estimated indirect band gap :   0.2540228538E-01
 from k-point     11 to k-point     22
Estimated direct band gap   :   0.4655039454    
 at k-point     13

Charges :
 core                        :    68.00000000    
 valence                     :    14.00000000    
 interstitial                :    16.06800493    
 muffin-tins (core leakage)
  species :    1 (Pb)
   atom    1                 :    65.93199507     (   36.88574319    )
 total in muffin-tins        :    65.93199507    
 total calculated charge     :    45.11495989    
 total charge                :    82.00000000    
 error                       :    36.88504011    

Moments :
 interstitial                :  -0.1160155547E-23  0.1279642444E-23 -0.3159223219E-23
 muffin-tins
  species :    1 (Pb)
   atom    1                 :  -0.6302168232E-23 -0.4044775815E-22 -0.4952254351E-22
 total in muffin-tins        :  -0.6302168232E-23 -0.4044775815E-22 -0.4952254351E-22
 total moment                :  -0.7462323779E-23 -0.3916811570E-22 -0.5268176673E-22

RMS change in Kohn-Sham potential (target) :   0.2770928572E-01 (  0.1000000000E-05)
Absolute change in total energy (target)   :    8.042681531     (  0.1000000000E-03)

Time (CPU seconds) :        21.86

+--------------------+
| Loop number :   12 |
+--------------------+

Energies :
 Fermi                       :      36.6328156652    
 sum of eigenvalues          :     -5328.36229244    
 electron kinetic            :      28198.2121258    
 core electron kinetic       :      24623.5507711    
 Coulomb                     :     -49053.9923154    
 Coulomb potential           :     -32766.3131916    
 nuclear-nuclear             :     -12036.0705396    
 electron-nuclear            :     -41269.5303599    
 Hartree                     :      4251.60858414    
 Madelung                    :     -32670.8357195    
 xc potential                :     -760.261226597    
 xc effective B-field        :    -0.308968781174E-07
 external B-field            :      0.00000000000    
 exchange                    :     -561.670757546    
 correlation                 :     -10.5645177160    
 electron entropic           :    -0.620215532186E-04
 total energy                :     -21428.0155268    
 (external B-field energy excluded from total)

Density of states at Fermi energy :    21.97265607    
 (states/Hartree/unit cell)

Estimated indirect band gap :   0.2567179392E-01
 from k-point     11 to k-point     22
Estimated direct band gap   :   0.4662249161    
 at k-point     13

Charges :
 core                        :    68.00000000    
 valence                     :    14.00000000    
 interstitial                :    16.07044218    
 muffin-tins (core leakage)
  species :    1 (Pb)
   atom    1                 :    65.92955782     (   36.88938429    )
 total in muffin-tins        :    65.92955782    
 total calculated charge     :    45.11131845    
 total charge                :    82.00000000    
 error                       :    36.88868155    

Moments :
 interstitial                :   0.3022709995E-24  0.3190048980E-24  0.5737392182E-24
 muffin-tins
  species :    1 (Pb)
   atom    1                 :  -0.2960055044E-22  0.3860483027E-22  0.8724144824E-22
 total in muffin-tins        :  -0.2960055044E-22  0.3860483027E-22  0.8724144824E-22
 total moment                :  -0.2929827944E-22  0.3892383516E-22  0.8781518746E-22

RMS change in Kohn-Sham potential (target) :   0.1796142934E-01 (  0.1000000000E-05)
Absolute change in total energy (target)   :    3.518147466     (  0.1000000000E-03)

Time (CPU seconds) :        23.63

+--------------------+
| Loop number :   13 |
+--------------------+

Energies :
 Fermi                       :      36.6480291489    
 sum of eigenvalues          :     -5327.59038580    
 electron kinetic            :      28199.1545259    
 core electron kinetic       :      24624.1946849    
 Coulomb                     :     -49054.2373009    
 Coulomb potential           :     -32766.4827441    
 nuclear-nuclear             :     -12036.0705396    
 electron-nuclear            :     -41269.8507785    
 Hartree                     :      4251.68401718    
 Madelung                    :     -32670.9959288    
 xc potential                :     -760.262167576    
 xc effective B-field        :    -0.308992907693E-07
 external B-field            :      0.00000000000    
 exchange                    :     -561.671463982    
 correlation                 :     -10.5645167136    
 electron entropic           :    -0.620215532061E-04
 total energy                :     -21427.3188177    
 (external B-field energy excluded from total)

Density of states at Fermi energy :    21.97265606    
 (states/Hartree/unit cell)

Estimated indirect band gap :   0.2575601258E-01
 from k-point     11 to k-point     22
Estimated direct band gap   :   0.4664056640    
 at k-point     13

Charges :
 core                        :    68.00000000    
 valence                     :    14.00000000    
 interstitial                :    16.07124615    
 muffin-tins (core leakage)
  species :    1 (Pb)
   atom    1                 :    65.92875385     (   36.89068247    )
 total in muffin-tins        :    65.92875385    
 total calculated charge     :    45.11002008    
 total charge                :    82.00000000    
 error                       :    36.88997992    

Moments :
 interstitial                :   0.9579699979E-24  0.9593227127E-24  0.5412601775E-23
 muffin-tins
  species :    1 (Pb)
   atom    1                 :   0.2194504464E-22 -0.4969094407E-24  0.6010012677E-22
 total in muffin-tins        :   0.2194504464E-22 -0.4969094407E-24  0.6010012677E-22
 total moment                :   0.2290301464E-22  0.4624132721E-24  0.6551272855E-22

RMS change in Kohn-Sham potential (target) :   0.9989875870E-02 (  0.1000000000E-05)
Absolute change in total energy (target)   :    1.576246014     (  0.1000000000E-03)

Time (CPU seconds) :        25.43

+--------------------+
| Loop number :   14 |
+--------------------+

Energies :
 Fermi                       :      36.6544299284    
 sum of eigenvalues          :     -5327.19014973    
 electron kinetic            :      28199.6859318    
 core electron kinetic       :      24624.5865086    
 Coulomb                     :     -49054.4133633    
 Coulomb potential           :     -32766.6122210    
 nuclear-nuclear             :     -12036.0705396    
 electron-nuclear            :     -41270.0734263    
 Hartree                     :      4251.73060265    
 Madelung                    :     -32671.1072527    
 xc potential                :     -760.263860494    
 xc effective B-field        :    -0.308977117249E-07
 external B-field            :      0.00000000000    
 exchange                    :     -561.672731286    
 correlation                 :     -10.5645198057    
 electron entropic           :    -0.620215532091E-04
 total energy                :     -21426.9647445    
 (external B-field energy excluded from total)

Density of states at Fermi energy :    21.97265607    
 (states/Hartree/unit cell)

Estimated indirect band gap :   0.2577513629E-01
 from k-point     11 to k-point     22
Estimated direct band gap   :   0.4664317280    
 at k-point     13

Charges :
 core                        :    68.00000000    
 valence                     :    14.00000000    
 interstitial                :    16.07144582    
 muffin-tins (core leakage)
  species :    1 (Pb)
   atom    1                 :    65.92855418     (   36.89103603    )
 total in muffin-tins        :    65.92855418    
 total calculated charge     :    45.10966636    
 total charge                :    82.00000000    
 error                       :    36.89033364    

Moments :
 interstitial                :   0.5623191876E-24 -0.1647449351E-25  0.1011421630E-23
 muffin-tins
  species :    1 (Pb)
   atom    1                 :   0.4020339458E-22 -0.3251706666E-22  0.6042531152E-22
 total in muffin-tins        :   0.4020339458E-22 -0.3251706666E-22  0.6042531152E-22
 total moment                :   0.4076571377E-22 -0.3253354115E-22  0.6143673315E-22

RMS change in Kohn-Sham potential (target) :   0.4950827193E-02 (  0.1000000000E-05)
Absolute change in total energy (target)   :   0.7481346166     (  0.1000000000E-03)

Time (CPU seconds) :        27.20

+--------------------+
| Loop number :   15 |
+--------------------+

Energies :
 Fermi                       :      36.6570530619    
 sum of eigenvalues          :     -5326.98353964    
 electron kinetic            :      28199.9621745    
 core electron kinetic       :      24624.8002037    
 Coulomb                     :     -49054.5021793    
 Coulomb potential           :     -32766.6807766    
 nuclear-nuclear             :     -12036.0705396    
 electron-nuclear            :     -41270.1825029    
 Hartree                     :      4251.75086313    
 Madelung                    :     -32671.1617910    
 xc potential                :     -760.264937442    
 xc effective B-field        :    -0.308959756194E-07
 external B-field            :      0.00000000000    
 exchange                    :     -561.673537152    
 correlation                 :     -10.5645222072    
 electron entropic           :    -0.620215532012E-04
 total energy                :     -21426.7781262    
 (external B-field energy excluded from total)

Density of states at Fermi energy :    21.97265606    
 (states/Hartree/unit cell)

Estimated indirect band gap :   0.2577606885E-01
 from k-point     11 to k-point     22
Estimated direct band gap   :   0.4664246849    
 at k-point     13

Charges :
 core                        :    68.00000000    
 valence                     :    14.00000000    
 interstitial                :    16.07145689    
 muffin-tins (core leakage)
  species :    1 (Pb)
   atom    1                 :    65.92854311     (   36.89106810    )
 total in muffin-tins        :    65.92854311    
 total calculated charge     :    45.10963419    
 total charge                :    82.00000000    
 error                       :    36.89036581    

Moments :
 interstitial                :   0.1752141305E-24  0.4515981920E-23  0.6399630662E-24
 muffin-tins
  species :    1 (Pb)
   atom    1                 :   0.2461994616E-23 -0.3370796417E-22  0.2980598361E-23
 total in muffin-tins        :   0.2461994616E-23 -0.3370796417E-22  0.2980598361E-23
 total moment                :   0.2637208747E-23 -0.2919198225E-22  0.3620561427E-23

RMS change in Kohn-Sham potential (target) :   0.2225155868E-02 (  0.1000000000E-05)
Absolute change in total energy (target)   :   0.3736519535     (  0.1000000000E-03)

Time (CPU seconds) :        28.97

+--------------------+
| Loop number :   16 |
+--------------------+

Energies :
 Fermi                       :      36.6580786924    
 sum of eigenvalues          :     -5326.88233364    
 electron kinetic            :      28200.0942920    
 core electron kinetic       :      24624.9054488    
 Coulomb                     :     -49054.5394343    
 Coulomb potential           :     -32766.7111607    
 nuclear-nuclear             :     -12036.0705396    
 electron-nuclear            :     -41270.2266288    
 Hartree                     :      4251.75773403    
 Madelung                    :     -32671.1838540    
 xc potential                :     -760.265464898    
 xc effective B-field        :    -0.308948880021E-07
 external B-field            :      0.00000000000    
 exchange                    :     -561.673931748    
 correlation                 :     -10.5645235028    
 electron entropic           :    -0.620215532000E-04
 total energy                :     -21426.6836596    
 (external B-field energy excluded from total)

Density of states at Fermi energy :    21.97265606    
 (states/Hartree/unit cell)

Estimated indirect band gap :   0.2577391043E-01
 from k-point     11 to k-point     22
Estimated direct band gap   :   0.4664157039    
 at k-point     13

Charges :
 core                        :    68.00000000    
 valence                     :    14.00000000    
 interstitial                :    16.07142956    
 muffin-tins (core leakage)
  species :    1 (Pb)
   atom    1                 :    65.92857044     (   36.89102600    )
 total in muffin-tins        :    65.92857044    
 total calculated charge     :    45.10967622    
 total charge                :    82.00000000    
 error                       :    36.89032378    

Moments :
 interstitial                :   0.3683358327E-24  0.4009398592E-23  0.4066901846E-23
 muffin-tins
  species :    1 (Pb)
   atom    1                 :  -0.5651606093E-23  0.2000836635E-22  0.1389956793E-22
 total in muffin-tins        :  -0.5651606093E-23  0.2000836635E-22  0.1389956793E-22
 total moment                :  -0.5283270260E-23  0.2401776494E-22  0.1796646978E-22

RMS change in Kohn-Sham potential (target) :   0.9101522717E-03 (  0.1000000000E-05)
Absolute change in total energy (target)   :   0.1878796507     (  0.1000000000E-03)

Time (CPU seconds) :        30.72

+--------------------+
| Loop number :   17 |
+--------------------+

Energies :
 Fermi                       :      36.6584540837    
 sum of eigenvalues          :     -5326.83716110    
 electron kinetic            :      28200.1515704    
 core electron kinetic       :      24624.9517322    
 Coulomb                     :     -49054.5529642    
 Coulomb potential           :     -32766.7230487    
 nuclear-nuclear             :     -12036.0705396    
 electron-nuclear            :     -41270.2418007    
 Hartree                     :      4251.75937597    
 Madelung                    :     -32671.1914399    
 xc potential                :     -760.265682743    
 xc effective B-field        :    -0.308943753783E-07
 external B-field            :      0.00000000000    
 exchange                    :     -561.674094692    
 correlation                 :     -10.5645240739    
 electron entropic           :    -0.620215531993E-04
 total energy                :     -21426.6400747    
 (external B-field energy excluded from total)

Density of states at Fermi energy :    21.97265606    
 (states/Hartree/unit cell)

Estimated indirect band gap :   0.2577234726E-01
 from k-point     11 to k-point     22
Estimated direct band gap   :   0.4664106261    
 at k-point     13

Charges :
 core                        :    68.00000000    
 valence                     :    14.00000000    
 interstitial                :    16.07140767    
 muffin-tins (core leakage)
  species :    1 (Pb)
   atom    1                 :    65.92859233     (   36.89098866    )
 total in muffin-tins        :    65.92859233    
 total calculated charge     :    45.10971353    
 total charge                :    82.00000000    
 error                       :    36.89028647    

Moments :
 interstitial                :   0.4489141413E-23  0.1716322730E-24  0.3849455481E-23
 muffin-tins
  species :    1 (Pb)
   atom    1                 :   0.3384149952E-23  0.1938164011E-22 -0.7288992761E-22
 total in muffin-tins        :   0.3384149952E-23  0.1938164011E-22 -0.7288992761E-22
 total moment                :   0.7873291365E-23  0.1955327238E-22 -0.6904047213E-22

RMS change in Kohn-Sham potential (target) :   0.3420938369E-03 (  0.1000000000E-05)
Absolute change in total energy (target)   :   0.9055483651E-01 (  0.1000000000E-03)

Time (CPU seconds) :        32.48

+--------------------+
| Loop number :   18 |
+--------------------+

Energies :
 Fermi                       :      36.6585813308    
 sum of eigenvalues          :     -5326.81925555    
 electron kinetic            :      28200.1736440    
 core electron kinetic       :      24624.9693675    
 Coulomb                     :     -49054.5570802    
 Coulomb potential           :     -32766.7271443    
 nuclear-nuclear             :     -12036.0705396    
 electron-nuclear            :     -41270.2459369    
 Hartree                     :      4251.75939632    
 Madelung                    :     -32671.1935080    
 xc potential                :     -760.265755273    
 xc effective B-field        :    -0.308941887417E-07
 external B-field            :     -0.00000000000    
 exchange                    :     -561.674148936    
 correlation                 :     -10.5645242723    
 electron entropic           :    -0.620215532088E-04
 total energy                :     -21426.6221714    
 (external B-field energy excluded from total)

Density of states at Fermi energy :    21.97265607    
 (states/Hartree/unit cell)

Estimated indirect band gap :   0.2577159034E-01
 from k-point     11 to k-point     22
Estimated direct band gap   :   0.4664087507    
 at k-point     13

Charges :
 core                        :    68.00000000    
 valence                     :    14.00000000    
 interstitial                :    16.07139694    
 muffin-tins (core leakage)
  species :    1 (Pb)
   atom    1                 :    65.92860306     (   36.89096925    )
 total in muffin-tins        :    65.92860306    
 total calculated charge     :    45.10973291    
 total charge                :    82.00000000    
 error                       :    36.89026709    

Moments :
 interstitial                :   0.1868190697E-24  0.4655603985E-23 -0.2869336943E-23
 muffin-tins
  species :    1 (Pb)
   atom    1                 :  -0.1690201892E-22 -0.5867352923E-22 -0.1874569387E-22
 total in muffin-tins        :  -0.1690201892E-22 -0.5867352923E-22 -0.1874569387E-22
 total moment                :  -0.1671519985E-22 -0.5401792524E-22 -0.2161503081E-22

RMS change in Kohn-Sham potential (target) :   0.1298106887E-03 (  0.1000000000E-05)
Absolute change in total energy (target)   :   0.4054200375E-01 (  0.1000000000E-03)

Time (CPU seconds) :        34.25

+--------------------+
| Loop number :   19 |
+--------------------+

Energies :
 Fermi                       :      36.6586209142    
 sum of eigenvalues          :     -5326.81290099    
 electron kinetic            :      28200.1809650    
 core electron kinetic       :      24624.9748836    
 Coulomb                     :     -49054.5577409    
 Coulomb potential           :     -32766.7280963    
 nuclear-nuclear             :     -12036.0705396    
 electron-nuclear            :     -41270.2463064    
 Hartree                     :      4251.75910507    
 Madelung                    :     -32671.1936928    
 xc potential                :     -760.265769650    
 xc effective B-field        :    -0.308941394390E-07
 external B-field            :      0.00000000000    
 exchange                    :     -561.674159685    
 correlation                 :     -10.5645243152    
 electron entropic           :    -0.620215532094E-04
 total energy                :     -21426.6155220    
 (external B-field energy excluded from total)

Density of states at Fermi energy :    21.97265607    
 (states/Hartree/unit cell)

Estimated indirect band gap :   0.2577130882E-01
 from k-point     11 to k-point     22
Estimated direct band gap   :   0.4664083702    
 at k-point     13

Charges :
 core                        :    68.00000000    
 valence                     :    14.00000000    
 interstitial                :    16.07139319    
 muffin-tins (core leakage)
  species :    1 (Pb)
   atom    1                 :    65.92860681     (   36.89096201    )
 total in muffin-tins        :    65.92860681    
 total calculated charge     :    45.10974014    
 total charge                :    82.00000000    
 error                       :    36.89025986    

Moments :
 interstitial                :   0.5674289567E-24 -0.1601064361E-23 -0.2510772679E-23
 muffin-tins
  species :    1 (Pb)
   atom    1                 :   0.1025108731E-22 -0.1703692783E-22  0.1583045518E-24
 total in muffin-tins        :   0.1025108731E-22 -0.1703692783E-22  0.1583045518E-24
 total moment                :   0.1081851627E-22 -0.1863799219E-22 -0.2352468128E-23

RMS change in Kohn-Sham potential (target) :   0.5764094957E-04 (  0.1000000000E-05)
Absolute change in total energy (target)   :   0.1678489013E-01 (  0.1000000000E-03)

Time (CPU seconds) :        36.01

+--------------------+
| Loop number :   20 |
+--------------------+

Energies :
 Fermi                       :      36.6586318512    
 sum of eigenvalues          :     -5326.81085067    
 electron kinetic            :      28200.1829877    
 core electron kinetic       :      24624.9761595    
 Coulomb                     :     -49054.5574693    
 Coulomb potential           :     -32766.7280714    
 nuclear-nuclear             :     -12036.0705396    
 electron-nuclear            :     -41270.2457880    
 Hartree                     :      4251.75885831    
 Madelung                    :     -32671.1934336    
 xc potential                :     -760.265766975    
 xc effective B-field        :    -0.308941347764E-07
 external B-field            :      0.00000000000    
 exchange                    :     -561.674157683    
 correlation                 :     -10.5645243106    
 electron entropic           :    -0.620215532060E-04
 total energy                :     -21426.6132256    
 (external B-field energy excluded from total)

Density of states at Fermi energy :    21.97265606    
 (states/Hartree/unit cell)

Estimated indirect band gap :   0.2577123124E-01
 from k-point     11 to k-point     22
Estimated direct band gap   :   0.4664084556    
 at k-point     13

Charges :
 core                        :    68.00000000    
 valence                     :    14.00000000    
 interstitial                :    16.07139227    
 muffin-tins (core leakage)
  species :    1 (Pb)
   atom    1                 :    65.92860773     (   36.89095996    )
 total in muffin-tins        :    65.92860773    
 total calculated charge     :    45.10974220    
 total charge                :    82.00000000    
 error                       :    36.89025780    

Moments :
 interstitial                :   0.1286236827E-23  0.4542964426E-25  0.3213348544E-23
 muffin-tins
  species :    1 (Pb)
   atom    1                 :  -0.3429585933E-22 -0.2434671176E-22  0.5749147967E-22
 total in muffin-tins        :  -0.3429585933E-22 -0.2434671176E-22  0.5749147967E-22
 total moment                :  -0.3300962250E-22 -0.2430128211E-22  0.6070482821E-22

RMS change in Kohn-Sham potential (target) :   0.2723097605E-04 (  0.1000000000E-05)
Absolute change in total energy (target)   :   0.6492638346E-02 (  0.1000000000E-03)

Time (CPU seconds) :        37.79

+--------------------+
| Loop number :   21 |
+--------------------+

Energies :
 Fermi                       :      36.6586352849    
 sum of eigenvalues          :     -5326.81018742    
 electron kinetic            :      28200.1834200    
 core electron kinetic       :      24624.9763264    
 Coulomb                     :     -49054.5570836    
 Coulomb potential           :     -32766.7278461    
 nuclear-nuclear             :     -12036.0705396    
 electron-nuclear            :     -41270.2452420    
 Hartree                     :      4251.75869798    
 Madelung                    :     -32671.1931606    
 xc potential                :     -760.265761347    
 xc effective B-field        :    -0.308941398104E-07
 external B-field            :      0.00000000000    
 exchange                    :     -561.674153472    
 correlation                 :     -10.5645242968    
 electron entropic           :    -0.620215532057E-04
 total energy                :     -21426.6124034    
 (external B-field energy excluded from total)

Density of states at Fermi energy :    21.97265606    
 (states/Hartree/unit cell)

Estimated indirect band gap :   0.2577122010E-01
 from k-point     11 to k-point     22
Estimated direct band gap   :   0.4664086287    
 at k-point     13

Charges :
 core                        :    68.00000000    
 valence                     :    14.00000000    
 interstitial                :    16.07139224    
 muffin-tins (core leakage)
  species :    1 (Pb)
   atom    1                 :    65.92860776     (   36.89095962    )
 total in muffin-tins        :    65.92860776    
 total calculated charge     :    45.10974253    
 total charge                :    82.00000000    
 error                       :    36.89025747    

Moments :
 interstitial                :  -0.3888841492E-23 -0.6231215105E-23  0.6023588072E-23
 muffin-tins
  species :    1 (Pb)
   atom    1                 :   0.2964352518E-23 -0.2146926150E-23  0.1219333648E-22
 total in muffin-tins        :   0.2964352518E-23 -0.2146926150E-23  0.1219333648E-22
 total moment                :  -0.9244889744E-24 -0.8378141256E-23  0.1821692455E-22

RMS change in Kohn-Sham potential (target) :   0.1139513333E-04 (  0.1000000000E-05)
Absolute change in total energy (target)   :   0.2445345406E-02 (  0.1000000000E-03)

Time (CPU seconds) :        39.54

+--------------------+
| Loop number :   22 |
+--------------------+

Energies :
 Fermi                       :      36.6586356403    
 sum of eigenvalues          :     -5326.80999238    
 electron kinetic            :      28200.1835170    
 core electron kinetic       :      24624.9763316    
 Coulomb                     :     -49054.5569255    
 Coulomb potential           :     -32766.7277504    
 nuclear-nuclear             :     -12036.0705396    
 electron-nuclear            :     -41270.2450214    
 Hartree                     :      4251.75863552    
 Madelung                    :     -32671.1930503    
 xc potential                :     -760.265758972    
 xc effective B-field        :    -0.308941433981E-07
 external B-field            :      0.00000000000    
 exchange                    :     -561.674151695    
 correlation                 :     -10.5645242909    
 electron entropic           :    -0.620215532080E-04
 total energy                :     -21426.6121465    
 (external B-field energy excluded from total)

Density of states at Fermi energy :    21.97265607    
 (states/Hartree/unit cell)

Estimated indirect band gap :   0.2577122325E-01
 from k-point     11 to k-point     22
Estimated direct band gap   :   0.4664087045    
 at k-point     13

Charges :
 core                        :    68.00000000    
 valence                     :    14.00000000    
 interstitial                :    16.07139225    
 muffin-tins (core leakage)
  species :    1 (Pb)
   atom    1                 :    65.92860775     (   36.89095953    )
 total in muffin-tins        :    65.92860775    
 total calculated charge     :    45.10974262    
 total charge                :    82.00000000    
 error                       :    36.89025738    

Moments :
 interstitial                :  -0.5831206967E-23 -0.3932403362E-23  0.5300596284E-23
 muffin-tins
  species :    1 (Pb)
   atom    1                 :   0.2068014428E-22 -0.4660230619E-23  0.4231074459E-22
 total in muffin-tins        :   0.2068014428E-22 -0.4660230619E-23  0.4231074459E-22
 total moment                :   0.1484893731E-22 -0.8592633981E-23  0.4761134087E-22

RMS change in Kohn-Sham potential (target) :   0.4350820883E-05 (  0.1000000000E-05)
Absolute change in total energy (target)   :   0.8682453190E-03 (  0.1000000000E-03)

Time (CPU seconds) :        41.30

+--------------------+
| Loop number :   23 |
+--------------------+

Energies :
 Fermi                       :      36.6586352574    
 sum of eigenvalues          :     -5326.80994356    
 electron kinetic            :      28200.1835473    
 core electron kinetic       :      24624.9763305    
 Coulomb                     :     -49054.5568889    
 Coulomb potential           :     -32766.7277324    
 nuclear-nuclear             :     -12036.0705396    
 electron-nuclear            :     -41270.2449663    
 Hartree                     :      4251.75861693    
 Madelung                    :     -32671.1930227    
 xc potential                :     -760.265758441    
 xc effective B-field        :    -0.308941450816E-07
 external B-field            :      0.00000000000    
 exchange                    :     -561.674151298    
 correlation                 :     -10.5645242895    
 electron entropic           :    -0.620215532032E-04
 total energy                :     -21426.6120792    
 (external B-field energy excluded from total)

Density of states at Fermi energy :    21.97265606    
 (states/Hartree/unit cell)

Estimated indirect band gap :   0.2577122718E-01
 from k-point     11 to k-point     22
Estimated direct band gap   :   0.4664087261    
 at k-point     13

Charges :
 core                        :    68.00000000    
 valence                     :    14.00000000    
 interstitial                :    16.07139224    
 muffin-tins (core leakage)
  species :    1 (Pb)
   atom    1                 :    65.92860776     (   36.89095947    )
 total in muffin-tins        :    65.92860776    
 total calculated charge     :    45.10974267    
 total charge                :    82.00000000    
 error                       :    36.89025733    

Moments :
 interstitial                :  -0.5069226519E-23 -0.2504466157E-23 -0.9064236360E-23
 muffin-tins
  species :    1 (Pb)
   atom    1                 :  -0.1264620908E-22 -0.1391735679E-23  0.1920715360E-22
 total in muffin-tins        :  -0.1264620908E-22 -0.1391735679E-23  0.1920715360E-22
 total moment                :  -0.1771543559E-22 -0.3896201836E-23  0.1014291724E-22

RMS change in Kohn-Sham potential (target) :   0.1582442548E-05 (  0.1000000000E-05)
Absolute change in total energy (target)   :   0.2843350594E-03 (  0.1000000000E-03)

Time (CPU seconds) :        43.05

+--------------------+
| Loop number :   24 |
+--------------------+

Energies :
 Fermi                       :      36.6586349630    
 sum of eigenvalues          :     -5326.80993241    
 electron kinetic            :      28200.1835589    
 core electron kinetic       :      24624.9763307    
 Coulomb                     :     -49054.5568864    
 Coulomb potential           :     -32766.7277329    
 nuclear-nuclear             :     -12036.0705396    
 electron-nuclear            :     -41270.2449608    
 Hartree                     :      4251.75861392    
 Madelung                    :     -32671.1930200    
 xc potential                :     -760.265758375    
 xc effective B-field        :    -0.308941458292E-07
 external B-field            :      0.00000000000    
 exchange                    :     -561.674151249    
 correlation                 :     -10.5645242894    
 electron entropic           :    -0.620215532083E-04
 total energy                :     -21426.6120651    
 (external B-field energy excluded from total)

Density of states at Fermi energy :    21.97265607    
 (states/Hartree/unit cell)

Estimated indirect band gap :   0.2577123042E-01
 from k-point     11 to k-point     22
Estimated direct band gap   :   0.4664087322    
 at k-point     13

Charges :
 core                        :    68.00000000    
 valence                     :    14.00000000    
 interstitial                :    16.07139223    
 muffin-tins (core leakage)
  species :    1 (Pb)
   atom    1                 :    65.92860777     (   36.89095945    )
 total in muffin-tins        :    65.92860777    
 total calculated charge     :    45.10974272    
 total charge                :    82.00000000    
 error                       :    36.89025728    

Moments :
 interstitial                :  -0.7393086374E-24 -0.1740960509E-23  0.3137730862E-23
 muffin-tins
  species :    1 (Pb)
   atom    1                 :  -0.3758440619E-22  0.2185508880E-22  0.2772328407E-22
 total in muffin-tins        :  -0.3758440619E-22  0.2185508880E-22  0.2772328407E-22
 total moment                :  -0.3832371483E-22  0.2011412829E-22  0.3086101493E-22

RMS change in Kohn-Sham potential (target) :   0.5476123269E-06 (  0.1000000000E-05)
Absolute change in total energy (target)   :   0.8522095595E-04 (  0.1000000000E-03)

Convergence targets achieved

Time (CPU seconds) :        44.81

+--------------------+
| Loop number :   25 |
+--------------------+

Energies :
 Fermi                       :      36.6586348210    
 sum of eigenvalues          :     -5326.80993103    
 electron kinetic            :      28200.1835609    
 core electron kinetic       :      24624.9763300    
 Coulomb                     :     -49054.5568867    
 Coulomb potential           :     -32766.7277335    
 nuclear-nuclear             :     -12036.0705396    
 electron-nuclear            :     -41270.2449608    
 Hartree                     :      4251.75861362    
 Madelung                    :     -32671.1930200    
 xc potential                :     -760.265758386    
 xc effective B-field        :    -0.308941461071E-07
 external B-field            :      0.00000000000    
 exchange                    :     -561.674151257    
 correlation                 :     -10.5645242894    
 electron entropic           :    -0.620215532035E-04
 total energy                :     -21426.6120634    
 (external B-field energy excluded from total)

Density of states at Fermi energy :    21.97265606    
 (states/Hartree/unit cell)

Estimated indirect band gap :   0.2577123048E-01
 from k-point     11 to k-point     22
Estimated direct band gap   :   0.4664087352    
 at k-point     13

Charges :
 core                        :    68.00000000    
 valence                     :    14.00000000    
 interstitial                :    16.07139223    
 muffin-tins (core leakage)
  species :    1 (Pb)
   atom    1                 :    65.92860777     (   36.89095944    )
 total in muffin-tins        :    65.92860777    
 total calculated charge     :    45.10974271    
 total charge                :    82.00000000    
 error                       :    36.89025729    

Moments :
 interstitial                :   0.5097293295E-24 -0.2747522744E-23 -0.1297824848E-24
 muffin-tins
  species :    1 (Pb)
   atom    1                 :   0.1323822470E-22  0.3721618718E-22 -0.1976026763E-22
 total in muffin-tins        :   0.1323822470E-22  0.3721618718E-22 -0.1976026763E-22
 total moment                :   0.1374795403E-22  0.3446866444E-22 -0.1989005011E-22

+------------------------------+
| Self-consistent loop stopped |
+------------------------------+

Wrote STATE.OUT

Timings (CPU seconds) :
 initialisation                        :         2.93
 Hamiltonian and overlap matrix set up :         1.76
 first-variational eigenvalue equation :         1.21
 second-variational calculation        :        27.16
 charge density calculation            :        11.39
 potential calculation                 :         2.13
 total                                 :        46.58

+----------------------------+
| Elk version 4.0.15 stopped |
+----------------------------+
