+----------------------------+
| Elk version 4.0.15 started |
+----------------------------+

Date (YYYY-MM-DD) : 2019-01-25
Time (hh:mm:ss)   : 08:55:54

All units are atomic (Hartree, Bohr, etc.)

+-------------------------------------------------+
| Ground-state run starting from atomic densities |
+-------------------------------------------------+

Lattice vectors :
   0.000000000      0.5000000000      0.5000000000    
  0.5000000000       0.000000000      0.5000000000    
  0.5000000000      0.5000000000       0.000000000    

Reciprocal lattice vectors :
  -6.283185307       6.283185307       6.283185307    
   6.283185307      -6.283185307       6.283185307    
   6.283185307       6.283185307      -6.283185307    

Unit cell volume      :   0.2500000000    
Brillouin zone volume :    992.2008538    

Species :    1 (Pb)
 parameters loaded from : Pb.in
 name : lead
 nuclear charge    :   -82.00000000    
 electronic charge :    82.00000000    
 atomic mass :    377702.4940    
 muffin-tin radius :   0.3285533906    
 number of radial points in muffin-tin :    697
 number on inner part of muffin-tin    :    469
 atomic positions (lattice), magnetic fields (Cartesian) :
   1 :   0.00000000  0.00000000  0.00000000    0.00000000  0.00000000  0.00000000

Total number of atoms per unit cell :    1

Spin treatment :
 spin-polarised
 spin-orbit coupling
 global magnetic field (Cartesian) :    0.000000000       0.000000000       0.000000000    
 non-collinear magnetisation

Number of Bravais lattice symmetries :   48
Number of crystal symmetries         :   48
Crystal has inversion symmetry
Real symmetric eigensolver will be used

k-point grid :      1     1     1
k-point offset :    0.000000000       0.000000000       0.000000000    
k-point set is reduced with full crystal symmetry group
Total number of k-points :        1

Muffin-tin radius times maximum |G+k| :    8.000000000    
 using average radius
Maximum |G+k| for APW functions       :    24.34916281    
Maximum (1/2)|G+k|^2                  :    296.4408648    
Maximum |G| for potential and density :    48.69832662    
Constant for pseudocharge density :    4
Radial integration step length :    4

G-vector grid sizes :     12    12    12
Number of G-vectors :      531

Maximum angular momentum used for
 APW functions                      :    8
 H and O matrix elements outer loop :    7
 outer part of muffin-tin           :    7
 inner part of muffin-tin           :    3

Total nuclear charge    :   -82.00000000    
Total core charge       :    68.00000000    
Total valence charge    :    14.00000000    
Total excess charge     :    0.000000000    
Total electronic charge :    82.00000000    

Effective Wigner radius, r_s :   0.8995235040E-01

Number of empty states         :    8
Total number of valence states :   32
Total number of core states    :   68

Total number of local-orbitals :   15

Exchange-correlation functional :      3     0     0
 Perdew-Wang/Ceperley-Alder, Phys. Rev. B 45, 13244 (1992)
 Local density approximation (LDA)

Smearing type :    3
 Fermi-Dirac
Smearing width :   0.1000000000E-02
Effective electronic temperature (K) :    315.7750425    

Mixing type :    1
 Adaptive linear mixing

Density and potential initialised from atomic data

+------------------------------+
| Self-consistent loop started |
+------------------------------+

+--------------------+
| Loop number :    1 |
+--------------------+

Energies :
 Fermi                       :      22.9584451868    
 sum of eigenvalues          :     -5855.62484660    
 electron kinetic            :      28527.4362594    
 core electron kinetic       :      25278.1158504    
 Coulomb                     :     -50163.0678894    
 Coulomb potential           :     -33604.3198542    
 nuclear-nuclear             :     -12036.0705396    
 electron-nuclear            :     -42649.6748454    
 Hartree                     :      4522.67749556    
 Madelung                    :     -33360.9079623    
 xc potential                :     -778.741251754    
 xc effective B-field        :     0.472131527480E-36
 external B-field            :      0.00000000000    
 exchange                    :     -575.494842994    
 correlation                 :     -10.6119227581    
 electron entropic           :    -0.633401935843E-16
 total energy                :     -22221.7383957    
 (external B-field energy excluded from total)

Density of states at Fermi energy :   0.1887487561E-11
 (states/Hartree/unit cell)

Estimated indirect band gap :    1.725702821    
 from k-point      1 to k-point      1
Estimated direct band gap   :    1.725702821    
 at k-point      1

Charges :
 core                        :    68.00000000    
 valence                     :    14.00000000    
 interstitial                :    14.74849600    
 muffin-tins (core leakage)
  species :    1 (Pb)
   atom    1                 :    67.25150400     (   35.23148177    )
 total in muffin-tins        :    67.25150400    
 total calculated charge     :    46.76914196    
 total charge                :    82.00000000    
 error                       :    35.23085804    

Moments :
 interstitial                :  -0.5971343134E-29 -0.3047423356E-29  0.1836118346E-29
 muffin-tins
  species :    1 (Pb)
   atom    1                 :   0.3243613765E-32  0.8682934242E-31 -0.2706852761E-31
 total in muffin-tins        :   0.3243613765E-32  0.8682934242E-31 -0.2706852761E-31
 total moment                :  -0.5968099520E-29 -0.2960594014E-29  0.1809049818E-29

Time (CPU seconds) :         3.07

+--------------------+
| Loop number :    2 |
+--------------------+

Energies :
 Fermi                       :      24.6034012799    
 sum of eigenvalues          :     -5776.37572365    
 electron kinetic            :      28494.4888410    
 core electron kinetic       :      25145.8214988    
 Coulomb                     :     -50021.1671865    
 Coulomb potential           :     -33494.3682841    
 nuclear-nuclear             :     -12036.0705396    
 electron-nuclear            :     -42475.8250097    
 Hartree                     :      4490.72836280    
 Madelung                    :     -33273.9830444    
 xc potential                :     -776.496280595    
 xc effective B-field        :     0.362579360434E-30
 external B-field            :      0.00000000000    
 exchange                    :     -573.815348339    
 correlation                 :     -10.6063378596    
 electron entropic           :    -0.633401935843E-16
 total energy                :     -22111.1000316    
 (external B-field energy excluded from total)

Density of states at Fermi energy :   0.1887487561E-11
 (states/Hartree/unit cell)

Estimated indirect band gap :    1.838317245    
 from k-point      1 to k-point      1
Estimated direct band gap   :    1.838317245    
 at k-point      1

Charges :
 core                        :    68.00000000    
 valence                     :    14.00000000    
 interstitial                :    14.88322637    
 muffin-tins (core leakage)
  species :    1 (Pb)
   atom    1                 :    67.11677363     (   35.48006647    )
 total in muffin-tins        :    67.11677363    
 total calculated charge     :    46.52050335    
 total charge                :    82.00000000    
 error                       :    35.47949665    

Moments :
 interstitial                :   0.2048470339E-26 -0.6840758605E-26 -0.4225148082E-26
 muffin-tins
  species :    1 (Pb)
   atom    1                 :  -0.2301602275E-29 -0.5174058059E-29  0.7340003283E-29
 total in muffin-tins        :  -0.2301602275E-29 -0.5174058059E-29  0.7340003283E-29
 total moment                :   0.2046168737E-26 -0.6845932663E-26 -0.4217808078E-26

RMS change in Kohn-Sham potential (target) :    15.44733662     (  0.1000000000E-05)
Absolute change in total energy (target)   :    110.6383641     (  0.1000000000E-03)

Time (CPU seconds) :         3.17

+--------------------+
| Loop number :    3 |
+--------------------+

Energies :
 Fermi                       :      26.6977192595    
 sum of eigenvalues          :     -5674.69517472    
 electron kinetic            :      28448.3165818    
 core electron kinetic       :      24997.0706836    
 Coulomb                     :     -49833.7354811    
 Coulomb potential           :     -33349.4671261    
 nuclear-nuclear             :     -12036.0705396    
 electron-nuclear            :     -42245.8627570    
 Hartree                     :      4448.19781548    
 Madelung                    :     -33159.0019181    
 xc potential                :     -773.544630419    
 xc effective B-field        :     0.220601407530E-37
 external B-field            :      0.00000000000    
 exchange                    :     -571.607191355    
 correlation                 :     -10.5989752016    
 electron entropic           :    -0.633401935843E-16
 total energy                :     -21967.6250659    
 (external B-field energy excluded from total)

Density of states at Fermi energy :   0.1887487562E-11
 (states/Hartree/unit cell)

Estimated indirect band gap :    1.999267139    
 from k-point      1 to k-point      1
Estimated direct band gap   :    1.999267139    
 at k-point      1

Charges :
 core                        :    68.00000000    
 valence                     :    14.00000000    
 interstitial                :    15.05840668    
 muffin-tins (core leakage)
  species :    1 (Pb)
   atom    1                 :    66.94159332     (   35.79380936    )
 total in muffin-tins        :    66.94159332    
 total calculated charge     :    46.20668500    
 total charge                :    82.00000000    
 error                       :    35.79331500    

Moments :
 interstitial                :   0.1104950075E-29  0.6187184905E-29  0.7981400832E-29
 muffin-tins
  species :    1 (Pb)
   atom    1                 :   0.1064095660E-31  0.1362517894E-32  0.4898287264E-32
 total in muffin-tins        :   0.1064095660E-31  0.1362517894E-32  0.4898287264E-32
 total moment                :   0.1115591032E-29  0.6188547423E-29  0.7986299119E-29

RMS change in Kohn-Sham potential (target) :    12.01471589     (  0.1000000000E-05)
Absolute change in total energy (target)   :    171.1345567     (  0.1000000000E-03)

Time (CPU seconds) :         3.28

+--------------------+
| Loop number :    4 |
+--------------------+

Energies :
 Fermi                       :      28.8767601912    
 sum of eigenvalues          :     -5568.08336534    
 electron kinetic            :      28396.0795945    
 core electron kinetic       :      24855.5942630    
 Coulomb                     :     -49631.8507769    
 Coulomb potential           :     -33193.7851197    
 nuclear-nuclear             :     -12036.0705396    
 electron-nuclear            :     -41997.7753550    
 Hartree                     :      4401.99511764    
 Madelung                    :     -33034.9582170    
 xc potential                :     -770.377840212    
 xc effective B-field        :     0.225179888990E-37
 external B-field            :      0.00000000000    
 exchange                    :     -569.238110729    
 correlation                 :     -10.5910422745    
 electron entropic           :    -0.633401935843E-16
 total energy                :     -21815.6003353    
 (external B-field energy excluded from total)

Density of states at Fermi energy :   0.1887487561E-11
 (states/Hartree/unit cell)

Estimated indirect band gap :    2.188756166    
 from k-point      1 to k-point      1
Estimated direct band gap   :    2.188756166    
 at k-point      1

Charges :
 core                        :    68.00000000    
 valence                     :    14.00000000    
 interstitial                :    15.24602428    
 muffin-tins (core leakage)
  species :    1 (Pb)
   atom    1                 :    66.75397572     (   36.11830749    )
 total in muffin-tins        :    66.75397572    
 total calculated charge     :    45.88210164    
 total charge                :    82.00000000    
 error                       :    36.11789836    

Moments :
 interstitial                :   0.1518266186E-29 -0.1094125150E-28  0.9948650823E-31
 muffin-tins
  species :    1 (Pb)
   atom    1                 :  -0.1109277780E-31 -0.2714249881E-31 -0.1460933627E-31
 total in muffin-tins        :  -0.1109277780E-31 -0.2714249881E-31 -0.1460933627E-31
 total moment                :   0.1507173409E-29 -0.1096839399E-28  0.8487717196E-31

RMS change in Kohn-Sham potential (target) :    8.406642029     (  0.1000000000E-05)
Absolute change in total energy (target)   :    194.8083698     (  0.1000000000E-03)

Time (CPU seconds) :         3.38

+--------------------+
| Loop number :    5 |
+--------------------+

Energies :
 Fermi                       :      30.8298809185    
 sum of eigenvalues          :     -5472.33017603    
 electron kinetic            :      28346.2283979    
 core electron kinetic       :      24739.9798220    
 Coulomb                     :     -49446.1781960    
 Coulomb potential           :     -33051.0969981    
 nuclear-nuclear             :     -12036.0705396    
 electron-nuclear            :     -41769.1183148    
 Hartree                     :      4359.01065833    
 Madelung                    :     -32920.6296970    
 xc potential                :     -767.461575835    
 xc effective B-field        :      0.00000000000    
 external B-field            :      0.00000000000    
 exchange                    :     -567.056486156    
 correlation                 :     -10.5836864808    
 electron entropic           :    -0.710223399938E-16
 total energy                :     -21677.5899707    
 (external B-field energy excluded from total)

Density of states at Fermi energy :   0.1887487563E-11
 (states/Hartree/unit cell)

Estimated indirect band gap :    2.373236840    
 from k-point      1 to k-point      1
Estimated direct band gap   :    2.373236840    
 at k-point      1

Charges :
 core                        :    68.00000000    
 valence                     :    14.00000000    
 interstitial                :    15.42140103    
 muffin-tins (core leakage)
  species :    1 (Pb)
   atom    1                 :    66.57859897     (   36.40766593    )
 total in muffin-tins        :    66.57859897    
 total calculated charge     :    45.59266617    
 total charge                :    82.00000000    
 error                       :    36.40733383    

Moments :
 interstitial                :  -0.7287274875E-31  0.7231265302E-33 -0.1418349480E-30
 muffin-tins
  species :    1 (Pb)
   atom    1                 :  -0.1260428724E-32  0.8524350367E-34 -0.1932759105E-32
 total in muffin-tins        :  -0.1260428724E-32  0.8524350367E-34 -0.1932759105E-32
 total moment                :  -0.7413317747E-31  0.8083700338E-33 -0.1437677071E-30

RMS change in Kohn-Sham potential (target) :    5.191898413     (  0.1000000000E-05)
Absolute change in total energy (target)   :    186.7124570     (  0.1000000000E-03)

Time (CPU seconds) :         3.48

+--------------------+
| Loop number :    6 |
+--------------------+

Energies :
 Fermi                       :      32.3593709402    
 sum of eigenvalues          :     -5397.50931396    
 electron kinetic            :      28309.6037330    
 core electron kinetic       :      24659.0687069    
 Coulomb                     :     -49303.9856478    
 Coulomb potential           :     -32941.8875651    
 nuclear-nuclear             :     -12036.0705396    
 electron-nuclear            :     -41593.9426514    
 Hartree                     :      4326.02754314    
 Madelung                    :     -32833.0418653    
 xc potential                :     -765.225481891    
 xc effective B-field        :     0.105910658020E-30
 external B-field            :     -0.00000000000    
 exchange                    :     -565.383715264    
 correlation                 :     -10.5780115303    
 electron entropic           :    -0.633401935843E-16
 total energy                :     -21570.3436416    
 (external B-field energy excluded from total)

Density of states at Fermi energy :   0.1887487562E-11
 (states/Hartree/unit cell)

Estimated indirect band gap :    2.528773508    
 from k-point      1 to k-point      1
Estimated direct band gap   :    2.528773508    
 at k-point      1

Charges :
 core                        :    68.00000000    
 valence                     :    14.00000000    
 interstitial                :    15.56015513    
 muffin-tins (core leakage)
  species :    1 (Pb)
   atom    1                 :    66.43984487     (   36.63339850    )
 total in muffin-tins        :    66.43984487    
 total calculated charge     :    45.36685805    
 total charge                :    82.00000000    
 error                       :    36.63314195    

Moments :
 interstitial                :  -0.1328082752E-26 -0.4452609551E-26 -0.6240457495E-27
 muffin-tins
  species :    1 (Pb)
   atom    1                 :   0.7470253267E-30  0.6771282933E-29  0.5714755501E-29
 total in muffin-tins        :   0.7470253267E-30  0.6771282933E-29  0.5714755501E-29
 total moment                :  -0.1327335727E-26 -0.4445838268E-26 -0.6183309940E-27

RMS change in Kohn-Sham potential (target) :    2.780858012     (  0.1000000000E-05)
Absolute change in total energy (target)   :    153.9244434     (  0.1000000000E-03)

Time (CPU seconds) :         3.59

+--------------------+
| Loop number :    7 |
+--------------------+

Energies :
 Fermi                       :      33.4265572554    
 sum of eigenvalues          :     -5346.10072161    
 electron kinetic            :      28288.2671173    
 core electron kinetic       :      24611.4583680    
 Coulomb                     :     -49211.0474712    
 Coulomb potential           :     -32870.6220637    
 nuclear-nuclear             :     -12036.0705396    
 electron-nuclear            :     -41479.3317996    
 Hartree                     :      4304.35486794    
 Madelung                    :     -32775.7364394    
 xc potential                :     -763.745775212    
 xc effective B-field        :      0.00000000000    
 external B-field            :      0.00000000000    
 exchange                    :     -564.276806903    
 correlation                 :     -10.5742207945    
 electron entropic           :    -0.710223399938E-16
 total energy                :     -21497.6313816    
 (external B-field energy excluded from total)

Density of states at Fermi energy :   0.1887487562E-11
 (states/Hartree/unit cell)

Estimated indirect band gap :    2.635587210    
 from k-point      1 to k-point      1
Estimated direct band gap   :    2.635587210    
 at k-point      1

Charges :
 core                        :    68.00000000    
 valence                     :    14.00000000    
 interstitial                :    15.65711327    
 muffin-tins (core leakage)
  species :    1 (Pb)
   atom    1                 :    66.34288673     (   36.78836719    )
 total in muffin-tins        :    66.34288673    
 total calculated charge     :    45.21185455    
 total charge                :    82.00000000    
 error                       :    36.78814545    

Moments :
 interstitial                :   0.1516231297E-30  0.1348817623E-30 -0.1059434585E-30
 muffin-tins
  species :    1 (Pb)
   atom    1                 :  -0.1064886817E-32  0.5520726229E-32 -0.2801386561E-33
 total in muffin-tins        :  -0.1064886817E-32  0.5520726229E-32 -0.2801386561E-33
 total moment                :   0.1505582429E-30  0.1404024885E-30 -0.1062235971E-30

RMS change in Kohn-Sham potential (target) :    1.249016792     (  0.1000000000E-05)
Absolute change in total energy (target)   :    111.1933708     (  0.1000000000E-03)

Time (CPU seconds) :         3.69

+--------------------+
| Loop number :    8 |
+--------------------+

Energies :
 Fermi                       :      34.0916613770    
 sum of eigenvalues          :     -5314.93270433    
 electron kinetic            :      28279.9968617    
 core electron kinetic       :      24588.9161950    
 Coulomb                     :     -49160.6242336    
 Coulomb potential           :     -32832.0077305    
 nuclear-nuclear             :     -12036.0705396    
 electron-nuclear            :     -41417.0996577    
 Hartree                     :      4292.54596361    
 Madelung                    :     -32744.6203684    
 xc potential                :     -762.921835594    
 xc effective B-field        :      0.00000000000    
 external B-field            :      0.00000000000    
 exchange                    :     -563.660472403    
 correlation                 :     -10.5720817515    
 electron entropic           :    -0.710223399938E-16
 total energy                :     -21454.8599261    
 (external B-field energy excluded from total)

Density of states at Fermi energy :   0.1887487562E-11
 (states/Hartree/unit cell)

Estimated indirect band gap :    2.695217020    
 from k-point      1 to k-point      1
Estimated direct band gap   :    2.695217020    
 at k-point      1

Charges :
 core                        :    68.00000000    
 valence                     :    14.00000000    
 interstitial                :    15.71594547    
 muffin-tins (core leakage)
  species :    1 (Pb)
   atom    1                 :    66.28405453     (   36.88161673    )
 total in muffin-tins        :    66.28405453    
 total calculated charge     :    45.11857154    
 total charge                :    82.00000000    
 error                       :    36.88142846    

Moments :
 interstitial                :   0.1380440320E-30 -0.2508833134E-30 -0.1023161379E-30
 muffin-tins
  species :    1 (Pb)
   atom    1                 :   0.1665119023E-32  0.4829514678E-32  0.8450761685E-33
 total in muffin-tins        :   0.1665119023E-32  0.4829514678E-32  0.8450761685E-33
 total moment                :   0.1397091511E-30 -0.2460537987E-30 -0.1014710618E-30

RMS change in Kohn-Sham potential (target) :   0.4480782304     (  0.1000000000E-05)
Absolute change in total energy (target)   :    70.56979824     (  0.1000000000E-03)

Time (CPU seconds) :         3.80

+--------------------+
| Loop number :    9 |
+--------------------+

Energies :
 Fermi                       :      34.4645737402    
 sum of eigenvalues          :     -5298.07224393    
 electron kinetic            :      28279.5358750    
 core electron kinetic       :      24581.2280386    
 Coulomb                     :     -49138.5198518    
 Coulomb potential           :     -32815.0660469    
 nuclear-nuclear             :     -12036.0705396    
 electron-nuclear            :     -41389.8325776    
 Hartree                     :      4287.38326534    
 Madelung                    :     -32730.9868284    
 xc potential                :     -762.542072052    
 xc effective B-field        :     0.252048839449E-31
 external B-field            :      0.00000000000    
 exchange                    :     -563.376412635    
 correlation                 :     -10.5710748901    
 electron entropic           :    -0.633401935843E-16
 total energy                :     -21432.9314643    
 (external B-field energy excluded from total)

Density of states at Fermi energy :   0.1887487562E-11
 (states/Hartree/unit cell)

Estimated indirect band gap :    2.721453210    
 from k-point      1 to k-point      1
Estimated direct band gap   :    2.721453210    
 at k-point      1

Charges :
 core                        :    68.00000000    
 valence                     :    14.00000000    
 interstitial                :    15.74693624    
 muffin-tins (core leakage)
  species :    1 (Pb)
   atom    1                 :    66.25306376     (   36.93076614    )
 total in muffin-tins        :    66.25306376    
 total calculated charge     :    45.06942065    
 total charge                :    82.00000000    
 error                       :    36.93057935    

Moments :
 interstitial                :  -0.2995560059E-26 -0.5308103125E-26  0.1286078239E-26
 muffin-tins
  species :    1 (Pb)
   atom    1                 :  -0.4501945054E-30 -0.1300208434E-28  0.1605816237E-28
 total in muffin-tins        :  -0.4501945054E-30 -0.1300208434E-28  0.1605816237E-28
 total moment                :  -0.2996010253E-26 -0.5321105209E-26  0.1302136401E-26

RMS change in Kohn-Sham potential (target) :   0.1215844175     (  0.1000000000E-05)
Absolute change in total energy (target)   :    39.57091131     (  0.1000000000E-03)

Time (CPU seconds) :         3.91

+--------------------+
| Loop number :   10 |
+--------------------+

Energies :
 Fermi                       :      34.6553063558    
 sum of eigenvalues          :     -5289.71881032    
 electron kinetic            :      28282.1212394    
 core electron kinetic       :      24580.2325269    
 Coulomb                     :     -49131.1352649    
 Coulomb potential           :     -32809.4388423    
 nuclear-nuclear             :     -12036.0705396    
 electron-nuclear            :     -41380.6906083    
 Hartree                     :      4285.62588299    
 Madelung                    :     -32726.4158437    
 xc potential                :     -762.401207378    
 xc effective B-field        :     0.120356812229E-41
 external B-field            :      0.00000000000    
 exchange                    :     -563.271057731    
 correlation                 :     -10.5706870142    
 electron entropic           :    -0.633401935843E-16
 total energy                :     -21422.8557702    
 (external B-field energy excluded from total)

Density of states at Fermi energy :   0.1887487561E-11
 (states/Hartree/unit cell)

Estimated indirect band gap :    2.729858456    
 from k-point      1 to k-point      1
Estimated direct band gap   :    2.729858456    
 at k-point      1

Charges :
 core                        :    68.00000000    
 valence                     :    14.00000000    
 interstitial                :    15.76123948    
 muffin-tins (core leakage)
  species :    1 (Pb)
   atom    1                 :    66.23876052     (   36.95363624    )
 total in muffin-tins        :    66.23876052    
 total calculated charge     :    45.04653853    
 total charge                :    82.00000000    
 error                       :    36.95346147    

Moments :
 interstitial                :   0.2581093046E-30 -0.2465498792E-30 -0.4436669235E-30
 muffin-tins
  species :    1 (Pb)
   atom    1                 :   0.1396674002E-32 -0.3476038843E-32  0.3496686474E-32
 total in muffin-tins        :   0.1396674002E-32 -0.3476038843E-32  0.3496686474E-32
 total moment                :   0.2595059786E-30 -0.2500259180E-30 -0.4401702371E-30

RMS change in Kohn-Sham potential (target) :   0.3844641035E-01 (  0.1000000000E-05)
Absolute change in total energy (target)   :    19.96842190     (  0.1000000000E-03)

Time (CPU seconds) :         4.01

+--------------------+
| Loop number :   11 |
+--------------------+

Energies :
 Fermi                       :      34.7458751879    
 sum of eigenvalues          :     -5285.95243375    
 electron kinetic            :      28284.5741770    
 core electron kinetic       :      24580.8881054    
 Coulomb                     :     -49129.4916436    
 Coulomb potential           :     -32808.1664771    
 nuclear-nuclear             :     -12036.0705396    
 electron-nuclear            :     -41378.6757310    
 Hartree                     :      4285.25462692    
 Madelung                    :     -32725.4084050    
 xc potential                :     -762.360133605    
 xc effective B-field        :      0.00000000000    
 external B-field            :     -0.00000000000    
 exchange                    :     -563.240344720    
 correlation                 :     -10.5705648416    
 electron entropic           :    -0.633401935843E-16
 total energy                :     -21418.7283762    
 (external B-field energy excluded from total)

Density of states at Fermi energy :   0.1887487561E-11
 (states/Hartree/unit cell)

Estimated indirect band gap :    2.731199323    
 from k-point      1 to k-point      1
Estimated direct band gap   :    2.731199323    
 at k-point      1

Charges :
 core                        :    68.00000000    
 valence                     :    14.00000000    
 interstitial                :    15.76740693    
 muffin-tins (core leakage)
  species :    1 (Pb)
   atom    1                 :    66.23259307     (   36.96394707    )
 total in muffin-tins        :    66.23259307    
 total calculated charge     :    45.03622692    
 total charge                :    82.00000000    
 error                       :    36.96377308    

Moments :
 interstitial                :  -0.3424707904E-30 -0.4918370233E-31 -0.7448812704E-30
 muffin-tins
  species :    1 (Pb)
   atom    1                 :  -0.1314369559E-32 -0.1925308693E-32 -0.3314684653E-33
 total in muffin-tins        :  -0.1314369559E-32 -0.1925308693E-32 -0.3314684653E-33
 total moment                :  -0.3437851599E-30 -0.5110901102E-31 -0.7452127389E-30

RMS change in Kohn-Sham potential (target) :   0.2486870373E-01 (  0.1000000000E-05)
Absolute change in total energy (target)   :    9.119499522     (  0.1000000000E-03)

Time (CPU seconds) :         4.11

+--------------------+
| Loop number :   12 |
+--------------------+

Energies :
 Fermi                       :      34.7867986902    
 sum of eigenvalues          :     -5284.19737625    
 electron kinetic            :      28286.2171391    
 core electron kinetic       :      24581.6539810    
 Coulomb                     :     -49129.4124306    
 Coulomb potential           :     -32808.0628705    
 nuclear-nuclear             :     -12036.0705396    
 electron-nuclear            :     -41378.6209114    
 Hartree                     :      4285.27902043    
 Madelung                    :     -32725.3809953    
 xc potential                :     -762.351644769    
 xc effective B-field        :      0.00000000000    
 external B-field            :      0.00000000000    
 exchange                    :     -563.234000632    
 correlation                 :     -10.5705349105    
 electron entropic           :    -0.633401935843E-16
 total energy                :     -21416.9998270    
 (external B-field energy excluded from total)

Density of states at Fermi energy :   0.1887487561E-11
 (states/Hartree/unit cell)

Estimated indirect band gap :    2.730701204    
 from k-point      1 to k-point      1
Estimated direct band gap   :    2.730701204    
 at k-point      1

Charges :
 core                        :    68.00000000    
 valence                     :    14.00000000    
 interstitial                :    15.76986143    
 muffin-tins (core leakage)
  species :    1 (Pb)
   atom    1                 :    66.23013857     (   36.96831841    )
 total in muffin-tins        :    66.23013857    
 total calculated charge     :    45.03186368    
 total charge                :    82.00000000    
 error                       :    36.96813632    

Moments :
 interstitial                :  -0.1404930711E-30  0.2578518831E-31 -0.2580939682E-30
 muffin-tins
  species :    1 (Pb)
   atom    1                 :  -0.2128995513E-33 -0.7330819277E-32 -0.2553799139E-32
 total in muffin-tins        :  -0.2128995513E-33 -0.7330819277E-32 -0.2553799139E-32
 total moment                :  -0.1407059706E-30  0.1845436904E-31 -0.2606477673E-30

RMS change in Kohn-Sham potential (target) :   0.1606651572E-01 (  0.1000000000E-05)
Absolute change in total energy (target)   :    4.008424057     (  0.1000000000E-03)

Time (CPU seconds) :         4.21

+--------------------+
| Loop number :   13 |
+--------------------+

Energies :
 Fermi                       :      34.8046778943    
 sum of eigenvalues          :     -5283.33355711    
 electron kinetic            :      28287.2045785    
 core electron kinetic       :      24582.2321662    
 Coulomb                     :     -49129.6126111    
 Coulomb potential           :     -32808.1863875    
 nuclear-nuclear             :     -12036.0705396    
 electron-nuclear            :     -41378.8977556    
 Hartree                     :      4285.35568407    
 Madelung                    :     -32725.5194174    
 xc potential                :     -762.351748155    
 xc effective B-field        :      0.00000000000    
 external B-field            :      0.00000000000    
 exchange                    :     -563.234080506    
 correlation                 :     -10.5705317223    
 electron entropic           :    -0.633401935843E-16
 total energy                :     -21416.2126448    
 (external B-field energy excluded from total)

Density of states at Fermi energy :   0.1887487562E-11
 (states/Hartree/unit cell)

Estimated indirect band gap :    2.730109543    
 from k-point      1 to k-point      1
Estimated direct band gap   :    2.730109543    
 at k-point      1

Charges :
 core                        :    68.00000000    
 valence                     :    14.00000000    
 interstitial                :    15.77072418    
 muffin-tins (core leakage)
  species :    1 (Pb)
   atom    1                 :    66.22927582     (   36.96995807    )
 total in muffin-tins        :    66.22927582    
 total calculated charge     :    45.03021621    
 total charge                :    82.00000000    
 error                       :    36.96978379    

Moments :
 interstitial                :  -0.1758811295E-30  0.7957551135E-31 -0.9877469931E-31
 muffin-tins
  species :    1 (Pb)
   atom    1                 :  -0.3381831412E-34  0.1307037826E-32 -0.4555903503E-33
 total in muffin-tins        :  -0.3381831412E-34  0.1307037826E-32 -0.4555903503E-33
 total moment                :  -0.1759149478E-30  0.8088254917E-31 -0.9923028966E-31

RMS change in Kohn-Sham potential (target) :   0.9177362292E-02 (  0.1000000000E-05)
Absolute change in total energy (target)   :    1.789288216     (  0.1000000000E-03)

Time (CPU seconds) :         4.31

+--------------------+
| Loop number :   14 |
+--------------------+

Energies :
 Fermi                       :      34.8122641706    
 sum of eigenvalues          :     -5282.89047801    
 electron kinetic            :      28287.7572622    
 core electron kinetic       :      24582.6032617    
 Coulomb                     :     -49129.7697795    
 Coulomb potential           :     -32808.2946270    
 nuclear-nuclear             :     -12036.0705396    
 electron-nuclear            :     -41379.1038528    
 Hartree                     :      4285.40461289    
 Madelung                    :     -32725.6224660    
 xc potential                :     -762.353113217    
 xc effective B-field        :     0.399220360790E-31
 external B-field            :      0.00000000000    
 exchange                    :     -563.235102545    
 correlation                 :     -10.5705339769    
 electron entropic           :    -0.710223399938E-16
 total energy                :     -21415.8181538    
 (external B-field energy excluded from total)

Density of states at Fermi energy :   0.1887487563E-11
 (states/Hartree/unit cell)

Estimated indirect band gap :    2.729744239    
 from k-point      1 to k-point      1
Estimated direct band gap   :    2.729744239    
 at k-point      1

Charges :
 core                        :    68.00000000    
 valence                     :    14.00000000    
 interstitial                :    15.77095374    
 muffin-tins (core leakage)
  species :    1 (Pb)
   atom    1                 :    66.22904626     (   36.97044401    )
 total in muffin-tins        :    66.22904626    
 total calculated charge     :    45.02973709    
 total charge                :    82.00000000    
 error                       :    36.97026291    

Moments :
 interstitial                :  -0.1815907983E-26  0.4789531363E-26 -0.3914513087E-26
 muffin-tins
  species :    1 (Pb)
   atom    1                 :  -0.2200367303E-29 -0.7530264778E-30  0.5601298170E-29
 total in muffin-tins        :  -0.2200367303E-29 -0.7530264778E-30  0.5601298170E-29
 total moment                :  -0.1818108350E-26  0.4788778336E-26 -0.3908911789E-26

RMS change in Kohn-Sham potential (target) :   0.4727857585E-02 (  0.1000000000E-05)
Absolute change in total energy (target)   :   0.8418130993     (  0.1000000000E-03)

Time (CPU seconds) :         4.41

+--------------------+
| Loop number :   15 |
+--------------------+

Energies :
 Fermi                       :      34.8153759155    
 sum of eigenvalues          :     -5282.66070881    
 electron kinetic            :      28288.0481918    
 core electron kinetic       :      24582.8177046    
 Coulomb                     :     -49129.8528212    
 Coulomb potential           :     -32808.3547941    
 nuclear-nuclear             :     -12036.0705396    
 electron-nuclear            :     -41379.2097693    
 Hartree                     :      4285.42748759    
 Madelung                    :     -32725.6754242    
 xc potential                :     -762.354106547    
 xc effective B-field        :     0.111960953892E-30
 external B-field            :      0.00000000000    
 exchange                    :     -563.235845838    
 correlation                 :     -10.5705361869    
 electron entropic           :    -0.710223399938E-16
 total energy                :     -21415.6110114    
 (external B-field energy excluded from total)

Density of states at Fermi energy :   0.1887487563E-11
 (states/Hartree/unit cell)

Estimated indirect band gap :    2.729560323    
 from k-point      1 to k-point      1
Estimated direct band gap   :    2.729560323    
 at k-point      1

Charges :
 core                        :    68.00000000    
 valence                     :    14.00000000    
 interstitial                :    15.77097626    
 muffin-tins (core leakage)
  species :    1 (Pb)
   atom    1                 :    66.22902374     (   36.97050916    )
 total in muffin-tins        :    66.22902374    
 total calculated charge     :    45.02966816    
 total charge                :    82.00000000    
 error                       :    36.97033184    

Moments :
 interstitial                :  -0.1992530525E-25  0.4841570386E-26  0.1427801579E-26
 muffin-tins
  species :    1 (Pb)
   atom    1                 :  -0.6039570210E-29  0.1257586606E-31 -0.4866361769E-29
 total in muffin-tins        :  -0.6039570210E-29  0.1257586606E-31 -0.4866361769E-29
 total moment                :  -0.1993134482E-25  0.4841582962E-26  0.1422935217E-26

RMS change in Kohn-Sham potential (target) :   0.2231888565E-02 (  0.1000000000E-05)
Absolute change in total energy (target)   :   0.4175956062     (  0.1000000000E-03)

Time (CPU seconds) :         4.52

+--------------------+
| Loop number :   16 |
+--------------------+

Energies :
 Fermi                       :      34.8166040724    
 sum of eigenvalues          :     -5282.54513276    
 electron kinetic            :      28288.1924581    
 core electron kinetic       :      24582.9310857    
 Coulomb                     :     -49129.8895130    
 Coulomb potential           :     -32808.3829541    
 nuclear-nuclear             :     -12036.0705396    
 electron-nuclear            :     -41379.2549926    
 Hartree                     :      4285.43601924    
 Madelung                    :     -32725.6980359    
 xc potential                :     -762.354636721    
 xc effective B-field        :     0.162051992731E-41
 external B-field            :      0.00000000000    
 exchange                    :     -563.236242450    
 correlation                 :     -10.5705375098    
 electron entropic           :    -0.710223399938E-16
 total energy                :     -21415.5038348    
 (external B-field energy excluded from total)

Density of states at Fermi energy :   0.1887487563E-11
 (states/Hartree/unit cell)

Estimated indirect band gap :    2.729474204    
 from k-point      1 to k-point      1
Estimated direct band gap   :    2.729474204    
 at k-point      1

Charges :
 core                        :    68.00000000    
 valence                     :    14.00000000    
 interstitial                :    15.77094946    
 muffin-tins (core leakage)
  species :    1 (Pb)
   atom    1                 :    66.22905054     (   36.97046263    )
 total in muffin-tins        :    66.22905054    
 total calculated charge     :    45.02971061    
 total charge                :    82.00000000    
 error                       :    36.97028939    

Moments :
 interstitial                :  -0.8448041004E-31  0.2622761021E-30 -0.2558987742E-30
 muffin-tins
  species :    1 (Pb)
   atom    1                 :  -0.2820801196E-32 -0.2708757344E-32  0.9697793616E-33
 total in muffin-tins        :  -0.2820801196E-32 -0.2708757344E-32  0.9697793616E-33
 total moment                :  -0.8730121124E-31  0.2595673447E-30 -0.2549289948E-30

RMS change in Kohn-Sham potential (target) :   0.9751592144E-03 (  0.1000000000E-05)
Absolute change in total energy (target)   :   0.2115755377     (  0.1000000000E-03)

Time (CPU seconds) :         4.63

+--------------------+
| Loop number :   17 |
+--------------------+

Energies :
 Fermi                       :      34.8170637758    
 sum of eigenvalues          :     -5282.49104172    
 electron kinetic            :      28288.2588680    
 core electron kinetic       :      24582.9849955    
 Coulomb                     :     -49129.9039145    
 Coulomb potential           :     -32808.3950356    
 nuclear-nuclear             :     -12036.0705396    
 electron-nuclear            :     -41379.2717142    
 Hartree                     :      4285.43833930    
 Madelung                    :     -32725.7063967    
 xc potential                :     -762.354874087    
 xc effective B-field        :      0.00000000000    
 external B-field            :      0.00000000000    
 exchange                    :     -563.236419986    
 correlation                 :     -10.5705381430    
 electron entropic           :    -0.633401935843E-16
 total energy                :     -21415.4520046    
 (external B-field energy excluded from total)

Density of states at Fermi energy :   0.1887487561E-11
 (states/Hartree/unit cell)

Estimated indirect band gap :    2.729436956    
 from k-point      1 to k-point      1
Estimated direct band gap   :    2.729436956    
 at k-point      1

Charges :
 core                        :    68.00000000    
 valence                     :    14.00000000    
 interstitial                :    15.77092363    
 muffin-tins (core leakage)
  species :    1 (Pb)
   atom    1                 :    66.22907637     (   36.97041271    )
 total in muffin-tins        :    66.22907637    
 total calculated charge     :    45.02975996    
 total charge                :    82.00000000    
 error                       :    36.97024004    

Moments :
 interstitial                :   0.3709567127E-30 -0.3693135258E-30 -0.1247069405E-30
 muffin-tins
  species :    1 (Pb)
   atom    1                 :   0.1104032296E-32  0.2134665824E-33  0.1645857244E-32
 total in muffin-tins        :   0.1104032296E-32  0.2134665824E-33  0.1645857244E-32
 total moment                :   0.3720607450E-30 -0.3691000592E-30 -0.1230610832E-30

RMS change in Kohn-Sham potential (target) :   0.4197187347E-03 (  0.1000000000E-05)
Absolute change in total energy (target)   :   0.1047240621     (  0.1000000000E-03)

Time (CPU seconds) :         4.73

+--------------------+
| Loop number :   18 |
+--------------------+

Energies :
 Fermi                       :      34.8172215163    
 sum of eigenvalues          :     -5282.46784411    
 electron kinetic            :      28288.2863115    
 core electron kinetic       :      24583.0071598    
 Coulomb                     :     -49129.9077887    
 Coulomb potential           :     -32808.3992048    
 nuclear-nuclear             :     -12036.0705396    
 electron-nuclear            :     -41379.2752935    
 Hartree                     :      4285.43804435    
 Madelung                    :     -32725.7081863    
 xc potential                :     -762.354950823    
 xc effective B-field        :     0.129272903048E-42
 external B-field            :      0.00000000000    
 exchange                    :     -563.236477366    
 correlation                 :     -10.5705383655    
 electron entropic           :    -0.710223399938E-16
 total energy                :     -21415.4284929    
 (external B-field energy excluded from total)

Density of states at Fermi energy :   0.1887487563E-11
 (states/Hartree/unit cell)

Estimated indirect band gap :    2.729423358    
 from k-point      1 to k-point      1
Estimated direct band gap   :    2.729423358    
 at k-point      1

Charges :
 core                        :    68.00000000    
 valence                     :    14.00000000    
 interstitial                :    15.77090661    
 muffin-tins (core leakage)
  species :    1 (Pb)
   atom    1                 :    66.22909339     (   36.97038339    )
 total in muffin-tins        :    66.22909339    
 total calculated charge     :    45.02979605    
 total charge                :    82.00000000    
 error                       :    36.97020395    

Moments :
 interstitial                :   0.9975025905E-31 -0.2125627930E-30 -0.4351456344E-31
 muffin-tins
  species :    1 (Pb)
   atom    1                 :  -0.1006058051E-32  0.5001931304E-33 -0.5244134419E-33
 total in muffin-tins        :  -0.1006058051E-32  0.5001931304E-33 -0.5244134419E-33
 total moment                :   0.9874420100E-31 -0.2120625999E-30 -0.4403897688E-31

RMS change in Kohn-Sham potential (target) :   0.1989243228E-03 (  0.1000000000E-05)
Absolute change in total energy (target)   :   0.4969271008E-01 (  0.1000000000E-03)

Time (CPU seconds) :         4.83

+--------------------+
| Loop number :   19 |
+--------------------+

Energies :
 Fermi                       :      34.8172636342    
 sum of eigenvalues          :     -5282.45915144    
 electron kinetic            :      28288.2957891    
 core electron kinetic       :      24583.0143740    
 Coulomb                     :     -49129.9081013    
 Coulomb potential           :     -32808.3999733    
 nuclear-nuclear             :     -12036.0705396    
 electron-nuclear            :     -41379.2751501    
 Hartree                     :      4285.43758842    
 Madelung                    :     -32725.7081146    
 xc potential                :     -762.354967297    
 xc effective B-field        :     0.174506179179E-42
 external B-field            :      0.00000000000    
 exchange                    :     -563.236489675    
 correlation                 :     -10.5705384245    
 electron entropic           :    -0.710223399938E-16
 total energy                :     -21415.4193402    
 (external B-field energy excluded from total)

Density of states at Fermi energy :   0.1887487563E-11
 (states/Hartree/unit cell)

Estimated indirect band gap :    2.729420069    
 from k-point      1 to k-point      1
Estimated direct band gap   :    2.729420069    
 at k-point      1

Charges :
 core                        :    68.00000000    
 valence                     :    14.00000000    
 interstitial                :    15.77089952    
 muffin-tins (core leakage)
  species :    1 (Pb)
   atom    1                 :    66.22910048     (   36.97037062    )
 total in muffin-tins        :    66.22910048    
 total calculated charge     :    45.02981174    
 total charge                :    82.00000000    
 error                       :    36.97018826    

Moments :
 interstitial                :   0.3866878479E-31 -0.1312246784E-31  0.3554719313E-30
 muffin-tins
  species :    1 (Pb)
   atom    1                 :   0.1902469487E-32  0.6047394035E-32  0.1703165364E-32
 total in muffin-tins        :   0.1902469487E-32  0.6047394035E-32  0.1703165364E-32
 total moment                :   0.4057125427E-31 -0.7075073808E-32  0.3571750967E-30

RMS change in Kohn-Sham potential (target) :   0.1039863059E-03 (  0.1000000000E-05)
Absolute change in total energy (target)   :   0.2157588210E-01 (  0.1000000000E-03)

Time (CPU seconds) :         4.93

+--------------------+
| Loop number :   20 |
+--------------------+

Energies :
 Fermi                       :      34.8172726998    
 sum of eigenvalues          :     -5282.45611982    
 electron kinetic            :      28288.2980618    
 core electron kinetic       :      24583.0158305    
 Coulomb                     :     -49129.9076502    
 Coulomb potential           :     -32808.3992144    
 nuclear-nuclear             :     -12036.0705396    
 electron-nuclear            :     -41379.2750067    
 Hartree                     :      4285.43789613    
 Madelung                    :     -32725.7080429    
 xc potential                :     -762.354967217    
 xc effective B-field        :     0.251054282267E-42
 external B-field            :      0.00000000000    
 exchange                    :     -563.236489609    
 correlation                 :     -10.5705384328    
 electron entropic           :    -0.633401935843E-16
 total energy                :     -21415.4166163    
 (external B-field energy excluded from total)

Density of states at Fermi energy :   0.1887487561E-11
 (states/Hartree/unit cell)

Estimated indirect band gap :    2.729420376    
 from k-point      1 to k-point      1
Estimated direct band gap   :    2.729420376    
 at k-point      1

Charges :
 core                        :    68.00000000    
 valence                     :    14.00000000    
 interstitial                :    15.77090127    
 muffin-tins (core leakage)
  species :    1 (Pb)
   atom    1                 :    66.22909873     (   36.97036646    )
 total in muffin-tins        :    66.22909873    
 total calculated charge     :    45.02980733    
 total charge                :    82.00000000    
 error                       :    36.97019267    

Moments :
 interstitial                :  -0.4443866180E-31  0.6555093403E-31  0.1163691666E-30
 muffin-tins
  species :    1 (Pb)
   atom    1                 :   0.2257051107E-33  0.2135764549E-32 -0.2725022337E-32
 total in muffin-tins        :   0.2257051107E-33  0.2135764549E-32 -0.2725022337E-32
 total moment                :  -0.4421295669E-31  0.6768669858E-31  0.1136441442E-30

RMS change in Kohn-Sham potential (target) :   0.5603724593E-04 (  0.1000000000E-05)
Absolute change in total energy (target)   :   0.8117854166E-02 (  0.1000000000E-03)

Time (CPU seconds) :         5.03

+--------------------+
| Loop number :   21 |
+--------------------+

Energies :
 Fermi                       :      34.8172800559    
 sum of eigenvalues          :     -5282.45460782    
 electron kinetic            :      28288.2989781    
 core electron kinetic       :      24583.0162492    
 Coulomb                     :     -49129.9068003    
 Coulomb potential           :     -32808.3986288    
 nuclear-nuclear             :     -12036.0705396    
 electron-nuclear            :     -41379.2738927    
 Hartree                     :      4285.43763191    
 Madelung                    :     -32725.7074859    
 xc potential                :     -762.354957071    
 xc effective B-field        :      0.00000000000    
 external B-field            :      0.00000000000    
 exchange                    :     -563.236482015    
 correlation                 :     -10.5705384112    
 electron entropic           :    -0.633401935843E-16
 total energy                :     -21415.4148427    
 (external B-field energy excluded from total)

Density of states at Fermi energy :   0.1887487561E-11
 (states/Hartree/unit cell)

Estimated indirect band gap :    2.729420257    
 from k-point      1 to k-point      1
Estimated direct band gap   :    2.729420257    
 at k-point      1

Charges :
 core                        :    68.00000000    
 valence                     :    14.00000000    
 interstitial                :    15.77090071    
 muffin-tins (core leakage)
  species :    1 (Pb)
   atom    1                 :    66.22909929     (   36.97036539    )
 total in muffin-tins        :    66.22909929    
 total calculated charge     :    45.02980904    
 total charge                :    82.00000000    
 error                       :    36.97019096    

Moments :
 interstitial                :   0.7947145538E-32 -0.8932706789E-32  0.2766535732E-31
 muffin-tins
  species :    1 (Pb)
   atom    1                 :   0.1363589452E-32  0.1533297283E-32 -0.5491501931E-32
 total in muffin-tins        :   0.1363589452E-32  0.1533297283E-32 -0.5491501931E-32
 total moment                :   0.9310734989E-32 -0.7399409506E-32  0.2217385539E-31

RMS change in Kohn-Sham potential (target) :   0.2309080711E-04 (  0.1000000000E-05)
Absolute change in total energy (target)   :   0.3803154432E-02 (  0.1000000000E-03)

Time (CPU seconds) :         5.13

+--------------------+
| Loop number :   22 |
+--------------------+

Energies :
 Fermi                       :      34.8172806943    
 sum of eigenvalues          :     -5282.45417412    
 electron kinetic            :      28288.2991183    
 core electron kinetic       :      24583.0162243    
 Coulomb                     :     -49129.9065254    
 Coulomb potential           :     -32808.3983381    
 nuclear-nuclear             :     -12036.0705396    
 electron-nuclear            :     -41379.2736335    
 Hartree                     :      4285.43764767    
 Madelung                    :     -32725.7073563    
 xc potential                :     -762.354954251    
 xc effective B-field        :     0.780687078758E-31
 external B-field            :     -0.00000000000    
 exchange                    :     -563.236479904    
 correlation                 :     -10.5705384058    
 electron entropic           :    -0.633401935843E-16
 total energy                :     -21415.4144254    
 (external B-field energy excluded from total)

Density of states at Fermi energy :   0.1887487562E-11
 (states/Hartree/unit cell)

Estimated indirect band gap :    2.729420045    
 from k-point      1 to k-point      1
Estimated direct band gap   :    2.729420045    
 at k-point      1

Charges :
 core                        :    68.00000000    
 valence                     :    14.00000000    
 interstitial                :    15.77090119    
 muffin-tins (core leakage)
  species :    1 (Pb)
   atom    1                 :    66.22909881     (   36.97036512    )
 total in muffin-tins        :    66.22909881    
 total calculated charge     :    45.02980796    
 total charge                :    82.00000000    
 error                       :    36.97019204    

Moments :
 interstitial                :  -0.5300381175E-26 -0.1837914237E-25 -0.3441698453E-26
 muffin-tins
  species :    1 (Pb)
   atom    1                 :   0.1536498970E-29 -0.1738130025E-29  0.2095158848E-29
 total in muffin-tins        :   0.1536498970E-29 -0.1738130025E-29  0.2095158848E-29
 total moment                :  -0.5298844676E-26 -0.1838088050E-25 -0.3439603294E-26

RMS change in Kohn-Sham potential (target) :   0.9654292570E-05 (  0.1000000000E-05)
Absolute change in total energy (target)   :   0.1368026533E-02 (  0.1000000000E-03)

Time (CPU seconds) :         5.24

+--------------------+
| Loop number :   23 |
+--------------------+

Energies :
 Fermi                       :      34.8172812743    
 sum of eigenvalues          :     -5282.45397306    
 electron kinetic            :      28288.2992166    
 core electron kinetic       :      24583.0162330    
 Coulomb                     :     -49129.9064276    
 Coulomb potential           :     -32808.3982363    
 nuclear-nuclear             :     -12036.0705396    
 electron-nuclear            :     -41379.2735397    
 Hartree                     :      4285.43765170    
 Madelung                    :     -32725.7073094    
 xc potential                :     -762.354953306    
 xc effective B-field        :     0.811369383572E-43
 external B-field            :      0.00000000000    
 exchange                    :     -563.236479197    
 correlation                 :     -10.5705384042    
 electron entropic           :    -0.710223399938E-16
 total energy                :     -21415.4142286    
 (external B-field energy excluded from total)

Density of states at Fermi energy :   0.1887487563E-11
 (states/Hartree/unit cell)

Estimated indirect band gap :    2.729419605    
 from k-point      1 to k-point      1
Estimated direct band gap   :    2.729419605    
 at k-point      1

Charges :
 core                        :    68.00000000    
 valence                     :    14.00000000    
 interstitial                :    15.77090130    
 muffin-tins (core leakage)
  species :    1 (Pb)
   atom    1                 :    66.22909870     (   36.97036503    )
 total in muffin-tins        :    66.22909870    
 total calculated charge     :    45.02980773    
 total charge                :    82.00000000    
 error                       :    36.97019227    

Moments :
 interstitial                :  -0.8950036231E-32  0.8402603578E-30  0.3000139804E-30
 muffin-tins
  species :    1 (Pb)
   atom    1                 :   0.7208563955E-32  0.1131093012E-32 -0.4132822875E-32
 total in muffin-tins        :   0.7208563955E-32  0.1131093012E-32 -0.4132822875E-32
 total moment                :  -0.1741472276E-32  0.8413914508E-30  0.2958811576E-30

RMS change in Kohn-Sham potential (target) :   0.3858863462E-05 (  0.1000000000E-05)
Absolute change in total energy (target)   :   0.5388037571E-03 (  0.1000000000E-03)

Time (CPU seconds) :         5.34

+--------------------+
| Loop number :   24 |
+--------------------+

Energies :
 Fermi                       :      34.8172815615    
 sum of eigenvalues          :     -5282.45390011    
 electron kinetic            :      28288.2995960    
 core electron kinetic       :      24583.0163749    
 Coulomb                     :     -49129.9060846    
 Coulomb potential           :     -32808.3985486    
 nuclear-nuclear             :     -12036.0705396    
 electron-nuclear            :     -41379.2725415    
 Hartree                     :      4285.43699644    
 Madelung                    :     -32725.7068103    
 xc potential                :     -762.354947516    
 xc effective B-field        :      0.00000000000    
 external B-field            :      0.00000000000    
 exchange                    :     -563.236474865    
 correlation                 :     -10.5705383899    
 electron entropic           :    -0.633401935843E-16
 total energy                :     -21415.4135019    
 (external B-field energy excluded from total)

Density of states at Fermi energy :   0.1887487561E-11
 (states/Hartree/unit cell)

Estimated indirect band gap :    2.729419297    
 from k-point      1 to k-point      1
Estimated direct band gap   :    2.729419297    
 at k-point      1

Charges :
 core                        :    68.00000000    
 valence                     :    14.00000000    
 interstitial                :    15.77089753    
 muffin-tins (core leakage)
  species :    1 (Pb)
   atom    1                 :    66.22910247     (   36.97036502    )
 total in muffin-tins        :    66.22910247    
 total calculated charge     :    45.02981704    
 total charge                :    82.00000000    
 error                       :    36.97018296    

Moments :
 interstitial                :   0.9912732147E-31  0.7869670336E-31  0.9215361345E-30
 muffin-tins
  species :    1 (Pb)
   atom    1                 :   0.1600462776E-32  0.1758984835E-32 -0.1373479496E-32
 total in muffin-tins        :   0.1600462776E-32  0.1758984835E-32 -0.1373479496E-32
 total moment                :   0.1007277842E-30  0.8045568819E-31  0.9201626550E-30

RMS change in Kohn-Sham potential (target) :   0.7254571068E-05 (  0.1000000000E-05)
Absolute change in total energy (target)   :   0.8614660655E-03 (  0.1000000000E-03)

Time (CPU seconds) :         5.44

+--------------------+
| Loop number :   25 |
+--------------------+

Energies :
 Fermi                       :      34.8172773578    
 sum of eigenvalues          :     -5282.45421458    
 electron kinetic            :      28288.2990989    
 core electron kinetic       :      24583.0161566    
 Coulomb                     :     -49129.9065300    
 Coulomb potential           :     -32808.3983584    
 nuclear-nuclear             :     -12036.0705396    
 electron-nuclear            :     -41379.2736224    
 Hartree                     :      4285.43763202    
 Madelung                    :     -32725.7073508    
 xc potential                :     -762.354955081    
 xc effective B-field        :      0.00000000000    
 external B-field            :      0.00000000000    
 exchange                    :     -563.236480524    
 correlation                 :     -10.5705384089    
 electron entropic           :    -0.710223399938E-16
 total energy                :     -21415.4144500    
 (external B-field energy excluded from total)

Density of states at Fermi energy :   0.1887487563E-11
 (states/Hartree/unit cell)

Estimated indirect band gap :    2.729419567    
 from k-point      1 to k-point      1
Estimated direct band gap   :    2.729419567    
 at k-point      1

Charges :
 core                        :    68.00000000    
 valence                     :    14.00000000    
 interstitial                :    15.77090086    
 muffin-tins (core leakage)
  species :    1 (Pb)
   atom    1                 :    66.22909914     (   36.97036503    )
 total in muffin-tins        :    66.22909914    
 total calculated charge     :    45.02980871    
 total charge                :    82.00000000    
 error                       :    36.97019129    

Moments :
 interstitial                :  -0.4874778110E-30 -0.9269039385E-31  0.6716104262E-30
 muffin-tins
  species :    1 (Pb)
   atom    1                 :   0.1798179186E-32 -0.1922289370E-33 -0.3218643875E-33
 total in muffin-tins        :   0.1798179186E-32 -0.1922289370E-33 -0.3218643875E-33
 total moment                :  -0.4856796318E-30 -0.9288262279E-31  0.6712885618E-30

RMS change in Kohn-Sham potential (target) :   0.3777885269E-05 (  0.1000000000E-05)
Absolute change in total energy (target)   :   0.7327920175E-03 (  0.1000000000E-03)

Time (CPU seconds) :         5.54

+--------------------+
| Loop number :   26 |
+--------------------+

Energies :
 Fermi                       :      34.8172786255    
 sum of eigenvalues          :     -5282.45412561    
 electron kinetic            :      28288.2994492    
 core electron kinetic       :      24583.0162047    
 Coulomb                     :     -49129.9061565    
 Coulomb potential           :     -32808.3986261    
 nuclear-nuclear             :     -12036.0705396    
 electron-nuclear            :     -41379.2726077    
 Hartree                     :      4285.43699077    
 Madelung                    :     -32725.7068434    
 xc potential                :     -762.354948647    
 xc effective B-field        :     0.165536821447E-32
 external B-field            :     -0.00000000000    
 exchange                    :     -563.236475711    
 correlation                 :     -10.5705383927    
 electron entropic           :    -0.633401935843E-16
 total energy                :     -21415.4137214    
 (external B-field energy excluded from total)

Density of states at Fermi energy :   0.1887487561E-11
 (states/Hartree/unit cell)

Estimated indirect band gap :    2.729419586    
 from k-point      1 to k-point      1
Estimated direct band gap   :    2.729419586    
 at k-point      1

Charges :
 core                        :    68.00000000    
 valence                     :    14.00000000    
 interstitial                :    15.77089730    
 muffin-tins (core leakage)
  species :    1 (Pb)
   atom    1                 :    66.22910270     (   36.97036507    )
 total in muffin-tins        :    66.22910270    
 total calculated charge     :    45.02981754    
 total charge                :    82.00000000    
 error                       :    36.97018246    

Moments :
 interstitial                :  -0.8207551072E-26 -0.1372531734E-26 -0.3469766103E-26
 muffin-tins
  species :    1 (Pb)
   atom    1                 :   0.2202103400E-29 -0.4777730551E-30 -0.9178577544E-29
 total in muffin-tins        :   0.2202103400E-29 -0.4777730551E-30 -0.9178577544E-29
 total moment                :  -0.8205348968E-26 -0.1373009507E-26 -0.3478944680E-26

RMS change in Kohn-Sham potential (target) :   0.5396618662E-05 (  0.1000000000E-05)
Absolute change in total energy (target)   :   0.5454092970E-03 (  0.1000000000E-03)

Time (CPU seconds) :         5.65

+--------------------+
| Loop number :   27 |
+--------------------+

Energies :
 Fermi                       :      34.8172777240    
 sum of eigenvalues          :     -5282.45419319    
 electron kinetic            :      28288.2990256    
 core electron kinetic       :      24583.0161421    
 Coulomb                     :     -49129.9064939    
 Coulomb potential           :     -32808.3982641    
 nuclear-nuclear             :     -12036.0705396    
 electron-nuclear            :     -41379.2736445    
 Hartree                     :      4285.43769020    
 Madelung                    :     -32725.7073618    
 xc potential                :     -762.354954648    
 xc effective B-field        :     0.266428512548E-32
 external B-field            :      0.00000000000    
 exchange                    :     -563.236480200    
 correlation                 :     -10.5705384079    
 electron entropic           :    -0.710223399938E-16
 total energy                :     -21415.4144869    
 (external B-field energy excluded from total)

Density of states at Fermi energy :   0.1887487562E-11
 (states/Hartree/unit cell)

Estimated indirect band gap :    2.729419744    
 from k-point      1 to k-point      1
Estimated direct band gap   :    2.729419744    
 at k-point      1

Charges :
 core                        :    68.00000000    
 valence                     :    14.00000000    
 interstitial                :    15.77090136    
 muffin-tins (core leakage)
  species :    1 (Pb)
   atom    1                 :    66.22909864     (   36.97036508    )
 total in muffin-tins        :    66.22909864    
 total calculated charge     :    45.02980752    
 total charge                :    82.00000000    
 error                       :    36.97019248    

Moments :
 interstitial                :  -0.1193271047E-25  0.3416621019E-26  0.4817979693E-26
 muffin-tins
  species :    1 (Pb)
   atom    1                 :   0.2398161182E-29 -0.1281576428E-31 -0.9073351597E-30
 total in muffin-tins        :   0.2398161182E-29 -0.1281576428E-31 -0.9073351597E-30
 total moment                :  -0.1193031231E-25  0.3416608203E-26  0.4817072358E-26

RMS change in Kohn-Sham potential (target) :   0.4331158869E-05 (  0.1000000000E-05)
Absolute change in total energy (target)   :   0.6291561003E-03 (  0.1000000000E-03)

Time (CPU seconds) :         5.76

+--------------------+
| Loop number :   28 |
+--------------------+

Energies :
 Fermi                       :      34.8172782274    
 sum of eigenvalues          :     -5282.45415480    
 electron kinetic            :      28288.2994094    
 core electron kinetic       :      24583.0161724    
 Coulomb                     :     -49129.9061622    
 Coulomb potential           :     -32808.3986155    
 nuclear-nuclear             :     -12036.0705396    
 electron-nuclear            :     -41379.2726297    
 Hartree                     :      4285.43700713    
 Madelung                    :     -32725.7068544    
 xc potential                :     -762.354948730    
 xc effective B-field        :      0.00000000000    
 external B-field            :      0.00000000000    
 exchange                    :     -563.236475773    
 correlation                 :     -10.5705383929    
 electron entropic           :    -0.710223399938E-16
 total energy                :     -21415.4137669    
 (external B-field energy excluded from total)

Density of states at Fermi energy :   0.1887487562E-11
 (states/Hartree/unit cell)

Estimated indirect band gap :    2.729419695    
 from k-point      1 to k-point      1
Estimated direct band gap   :    2.729419695    
 at k-point      1

Charges :
 core                        :    68.00000000    
 valence                     :    14.00000000    
 interstitial                :    15.77089738    
 muffin-tins (core leakage)
  species :    1 (Pb)
   atom    1                 :    66.22910262     (   36.97036508    )
 total in muffin-tins        :    66.22910262    
 total calculated charge     :    45.02981734    
 total charge                :    82.00000000    
 error                       :    36.97018266    

Moments :
 interstitial                :   0.3588057828E-30  0.3844054242E-31  0.4233981658E-30
 muffin-tins
  species :    1 (Pb)
   atom    1                 :  -0.6882898906E-34 -0.1788701436E-32 -0.2515974807E-33
 total in muffin-tins        :  -0.6882898906E-34 -0.1788701436E-32 -0.2515974807E-33
 total moment                :   0.3587369538E-30  0.3665184098E-31  0.4231465683E-30

RMS change in Kohn-Sham potential (target) :   0.4912624191E-05 (  0.1000000000E-05)
Absolute change in total energy (target)   :   0.5626945167E-03 (  0.1000000000E-03)

Time (CPU seconds) :         5.86

+--------------------+
| Loop number :   29 |
+--------------------+

Energies :
 Fermi                       :      34.8172778027    
 sum of eigenvalues          :     -5282.45418529    
 electron kinetic            :      28288.2993322    
 core electron kinetic       :      24583.0161640    
 Coulomb                     :     -49129.9062128    
 Coulomb potential           :     -32808.3985679    
 nuclear-nuclear             :     -12036.0705396    
 electron-nuclear            :     -41379.2727786    
 Hartree                     :      4285.43710538    
 Madelung                    :     -32725.7069289    
 xc potential                :     -762.354949628    
 xc effective B-field        :     0.334188902557E-31
 external B-field            :     -0.00000000000    
 exchange                    :     -563.236476445    
 correlation                 :     -10.5705383952    
 electron entropic           :    -0.710223399938E-16
 total energy                :     -21415.4138954    
 (external B-field energy excluded from total)

Density of states at Fermi energy :   0.1887487563E-11
 (states/Hartree/unit cell)

Estimated indirect band gap :    2.729419796    
 from k-point      1 to k-point      1
Estimated direct band gap   :    2.729419796    
 at k-point      1

Charges :
 core                        :    68.00000000    
 valence                     :    14.00000000    
 interstitial                :    15.77089793    
 muffin-tins (core leakage)
  species :    1 (Pb)
   atom    1                 :    66.22910207     (   36.97036508    )
 total in muffin-tins        :    66.22910207    
 total calculated charge     :    45.02981598    
 total charge                :    82.00000000    
 error                       :    36.97018402    

Moments :
 interstitial                :  -0.6053917566E-26 -0.1308600111E-25 -0.5085459861E-26
 muffin-tins
  species :    1 (Pb)
   atom    1                 :  -0.7414873951E-29  0.7313290069E-29 -0.2350724624E-29
 total in muffin-tins        :  -0.7414873951E-29  0.7313290069E-29 -0.2350724624E-29
 total moment                :  -0.6061332440E-26 -0.1307868782E-25 -0.5087810586E-26

RMS change in Kohn-Sham potential (target) :   0.3337174244E-05 (  0.1000000000E-05)
Absolute change in total energy (target)   :   0.1215760494E-04 (  0.1000000000E-03)

Time (CPU seconds) :         5.96

+--------------------+
| Loop number :   30 |
+--------------------+

Energies :
 Fermi                       :      34.8172773136    
 sum of eigenvalues          :     -5282.45421912    
 electron kinetic            :      28288.2990473    
 core electron kinetic       :      24583.0161275    
 Coulomb                     :     -49129.9064246    
 Coulomb potential           :     -32808.3983130    
 nuclear-nuclear             :     -12036.0705396    
 electron-nuclear            :     -41379.2734570    
 Hartree                     :      4285.43757198    
 Madelung                    :     -32725.7072681    
 xc potential                :     -762.354953449    
 xc effective B-field        :      0.00000000000    
 external B-field            :      0.00000000000    
 exchange                    :     -563.236479303    
 correlation                 :     -10.5705384048    
 electron entropic           :    -0.633401935843E-16
 total energy                :     -21415.4143949    
 (external B-field energy excluded from total)

Density of states at Fermi energy :   0.1887487561E-11
 (states/Hartree/unit cell)

Estimated indirect band gap :    2.729419940    
 from k-point      1 to k-point      1
Estimated direct band gap   :    2.729419940    
 at k-point      1

Charges :
 core                        :    68.00000000    
 valence                     :    14.00000000    
 interstitial                :    15.77090073    
 muffin-tins (core leakage)
  species :    1 (Pb)
   atom    1                 :    66.22909927     (   36.97036508    )
 total in muffin-tins        :    66.22909927    
 total calculated charge     :    45.02980909    
 total charge                :    82.00000000    
 error                       :    36.97019091    

Moments :
 interstitial                :   0.9464686417E-31  0.2928307374E-32 -0.4386450419E-31
 muffin-tins
  species :    1 (Pb)
   atom    1                 :  -0.3246180470E-32 -0.8949200687E-33  0.4756705577E-32
 total in muffin-tins        :  -0.3246180470E-32 -0.8949200687E-33  0.4756705577E-32
 total moment                :   0.9140068370E-31  0.2033387306E-32 -0.3910779861E-31

RMS change in Kohn-Sham potential (target) :   0.3146840533E-05 (  0.1000000000E-05)
Absolute change in total energy (target)   :   0.4964478321E-03 (  0.1000000000E-03)

Time (CPU seconds) :         6.06

+--------------------+
| Loop number :   31 |
+--------------------+

Energies :
 Fermi                       :      34.8172776257    
 sum of eigenvalues          :     -5282.45419530    
 electron kinetic            :      28288.2991430    
 core electron kinetic       :      24583.0161349    
 Coulomb                     :     -49129.9063454    
 Coulomb potential           :     -32808.3983862    
 nuclear-nuclear             :     -12036.0705396    
 electron-nuclear            :     -41379.2732254    
 Hartree                     :      4285.43741956    
 Madelung                    :     -32725.7071522    
 xc potential                :     -762.354952101    
 xc effective B-field        :      0.00000000000    
 external B-field            :      0.00000000000    
 exchange                    :     -563.236478295    
 correlation                 :     -10.5705384015    
 electron entropic           :    -0.633401935843E-16
 total energy                :     -21415.4142190    
 (external B-field energy excluded from total)

Density of states at Fermi energy :   0.1887487561E-11
 (states/Hartree/unit cell)

Estimated indirect band gap :    2.729419883    
 from k-point      1 to k-point      1
Estimated direct band gap   :    2.729419883    
 at k-point      1

Charges :
 core                        :    68.00000000    
 valence                     :    14.00000000    
 interstitial                :    15.77089981    
 muffin-tins (core leakage)
  species :    1 (Pb)
   atom    1                 :    66.22910019     (   36.97036508    )
 total in muffin-tins        :    66.22910019    
 total calculated charge     :    45.02981136    
 total charge                :    82.00000000    
 error                       :    36.97018864    

Moments :
 interstitial                :   0.1056479193E-31  0.4525921732E-30 -0.2160598265E-30
 muffin-tins
  species :    1 (Pb)
   atom    1                 :   0.4126429649E-33 -0.1719902927E-33  0.1060156274E-32
 total in muffin-tins        :   0.4126429649E-33 -0.1719902927E-33  0.1060156274E-32
 total moment                :   0.1097743489E-31  0.4524201829E-30 -0.2149996702E-30

RMS change in Kohn-Sham potential (target) :   0.1189397693E-05 (  0.1000000000E-05)
Absolute change in total energy (target)   :   0.5179240179E-04 (  0.1000000000E-03)

Time (CPU seconds) :         6.16

+--------------------+
| Loop number :   32 |
+--------------------+

Energies :
 Fermi                       :      34.8172777494    
 sum of eigenvalues          :     -5282.45418399    
 electron kinetic            :      28288.2992465    
 core electron kinetic       :      24583.0161449    
 Coulomb                     :     -49129.9062489    
 Coulomb potential           :     -32808.3984801    
 nuclear-nuclear             :     -12036.0705396    
 electron-nuclear            :     -41379.2729386    
 Hartree                     :      4285.43722924    
 Madelung                    :     -32725.7070089    
 xc potential                :     -762.354950363    
 xc effective B-field        :     0.103823719653E-43
 external B-field            :      0.00000000000    
 exchange                    :     -563.236476995    
 correlation                 :     -10.5705383971    
 electron entropic           :    -0.710223399938E-16
 total energy                :     -21415.4140178    
 (external B-field energy excluded from total)

Density of states at Fermi energy :   0.1887487563E-11
 (states/Hartree/unit cell)

Estimated indirect band gap :    2.729419890    
 from k-point      1 to k-point      1
Estimated direct band gap   :    2.729419890    
 at k-point      1

Charges :
 core                        :    68.00000000    
 valence                     :    14.00000000    
 interstitial                :    15.77089877    
 muffin-tins (core leakage)
  species :    1 (Pb)
   atom    1                 :    66.22910123     (   36.97036508    )
 total in muffin-tins        :    66.22910123    
 total calculated charge     :    45.02981393    
 total charge                :    82.00000000    
 error                       :    36.97018607    

Moments :
 interstitial                :  -0.4738541033E-30  0.5556486414E-30 -0.1003588893E-30
 muffin-tins
  species :    1 (Pb)
   atom    1                 :   0.7162337208E-33  0.3313474248E-32  0.1899729028E-32
 total in muffin-tins        :   0.7162337208E-33  0.3313474248E-32  0.1899729028E-32
 total moment                :  -0.4731378696E-30  0.5589621156E-30 -0.9845916026E-31

RMS change in Kohn-Sham potential (target) :   0.1841979695E-05 (  0.1000000000E-05)
Absolute change in total energy (target)   :   0.2141581936E-03 (  0.1000000000E-03)

Time (CPU seconds) :         6.27

+--------------------+
| Loop number :   33 |
+--------------------+

Energies :
 Fermi                       :      34.8172775574    
 sum of eigenvalues          :     -5282.45419677    
 electron kinetic            :      28288.2990221    
 core electron kinetic       :      24583.0161249    
 Coulomb                     :     -49129.9064311    
 Coulomb potential           :     -32808.3982653    
 nuclear-nuclear             :     -12036.0705396    
 electron-nuclear            :     -41379.2735177    
 Hartree                     :      4285.43762617    
 Madelung                    :     -32725.7072984    
 xc potential                :     -762.354953602    
 xc effective B-field        :     0.546491995114E-31
 external B-field            :      0.00000000000    
 exchange                    :     -563.236479418    
 correlation                 :     -10.5705384053    
 electron entropic           :    -0.633401935843E-16
 total energy                :     -21415.4144267    
 (external B-field energy excluded from total)

[...]

Moments :
 interstitial                :   0.1913485050E-30  0.3134015045E-30 -0.7286963452E-31
 muffin-tins
  species :    1 (Pb)
   atom    1                 :   0.2020237383E-32 -0.3625896637E-32  0.8051614916E-33
 total in muffin-tins        :   0.2020237383E-32 -0.3625896637E-32  0.8051614916E-33
 total moment                :   0.1933687424E-30  0.3097756079E-30 -0.7206447302E-31

RMS change in Kohn-Sham potential (target) :   0.4578985002E-05 (  0.1000000000E-05)
Absolute change in total energy (target)   :   0.3973029452E-03 (  0.1000000000E-03)

Time (CPU seconds) :        10.82

+--------------------+
| Loop number :   77 |
+--------------------+

Energies :
 Fermi                       :      34.8172768796    
 sum of eigenvalues          :     -5282.45423286    
 electron kinetic            :      28288.2989518    
 core electron kinetic       :      24583.0161069    
 Coulomb                     :     -49129.9064386    
 Coulomb potential           :     -32808.3982308    
 nuclear-nuclear             :     -12036.0705396    
 electron-nuclear            :     -41379.2735673    
 Hartree                     :      4285.43766824    
 Madelung                    :     -32725.7073232    
 xc potential                :     -762.354953817    
 xc effective B-field        :     0.663261308221E-32
 external B-field            :      0.00000000000    
 exchange                    :     -563.236479578    
 correlation                 :     -10.5705384058    
 electron entropic           :    -0.710223399938E-16
 total energy                :     -21415.4145048    
 (external B-field energy excluded from total)

Density of states at Fermi energy :   0.1887487563E-11
 (states/Hartree/unit cell)

Estimated indirect band gap :    2.729420174    
 from k-point      1 to k-point      1
Estimated direct band gap   :    2.729420174    
 at k-point      1

Charges :
 core                        :    68.00000000    
 valence                     :    14.00000000    
 interstitial                :    15.77090134    
 muffin-tins (core leakage)
  species :    1 (Pb)
   atom    1                 :    66.22909866     (   36.97036503    )
 total in muffin-tins        :    66.22909866    
 total calculated charge     :    45.02980760    
 total charge                :    82.00000000    
 error                       :    36.97019240    

Moments :
 interstitial                :   0.2119325197E-25 -0.3180786596E-26  0.1481761767E-25
 muffin-tins
  species :    1 (Pb)
   atom    1                 :  -0.2024007231E-29  0.4061930049E-30  0.4736247074E-29
 total in muffin-tins        :  -0.2024007231E-29  0.4061930049E-30  0.4736247074E-29
 total moment                :   0.2119122797E-25 -0.3180380403E-26  0.1482235392E-25

RMS change in Kohn-Sham potential (target) :   0.4615656419E-05 (  0.1000000000E-05)
Absolute change in total energy (target)   :   0.6212849075E-03 (  0.1000000000E-03)

Time (CPU seconds) :        10.92

+--------------------+
| Loop number :   78 |
+--------------------+

Energies :
 Fermi                       :      34.8172772793    
 sum of eigenvalues          :     -5282.45420396    
 electron kinetic            :      28288.2989984    
 core electron kinetic       :      24583.0161102    
 Coulomb                     :     -49129.9064119    
 Coulomb potential           :     -32808.3982490    
 nuclear-nuclear             :     -12036.0705396    
 electron-nuclear            :     -41379.2734956    
 Hartree                     :      4285.43762328    
 Madelung                    :     -32725.7072874    
 xc potential                :     -762.354953367    
 xc effective B-field        :      0.00000000000    
 external B-field            :      0.00000000000    
 exchange                    :     -563.236479242    
 correlation                 :     -10.5705384047    
 electron entropic           :    -0.710223399938E-16
 total energy                :     -21415.4144311    
 (external B-field energy excluded from total)

Density of states at Fermi energy :   0.1887487563E-11
 (states/Hartree/unit cell)

Estimated indirect band gap :    2.729420076    
 from k-point      1 to k-point      1
Estimated direct band gap   :    2.729420076    
 at k-point      1

Charges :
 core                        :    68.00000000    
 valence                     :    14.00000000    
 interstitial                :    15.77090108    
 muffin-tins (core leakage)
  species :    1 (Pb)
   atom    1                 :    66.22909892     (   36.97036504    )
 total in muffin-tins        :    66.22909892    
 total calculated charge     :    45.02980824    
 total charge                :    82.00000000    
 error                       :    36.97019176    

Moments :
 interstitial                :   0.3194610766E-31  0.1245102001E-30 -0.3710533282E-30
 muffin-tins
  species :    1 (Pb)
   atom    1                 :   0.2087074820E-32  0.1149121208E-32  0.1462381356E-32
 total in muffin-tins        :   0.2087074820E-32  0.1149121208E-32  0.1462381356E-32
 total moment                :   0.3403318248E-31  0.1256593213E-30 -0.3695909468E-30

RMS change in Kohn-Sham potential (target) :   0.3729024115E-05 (  0.1000000000E-05)
Absolute change in total energy (target)   :   0.8157473349E-04 (  0.1000000000E-03)

Time (CPU seconds) :        11.03

+--------------------+
| Loop number :   79 |
+--------------------+

Energies :
 Fermi                       :      34.8172778097    
 sum of eigenvalues          :     -5282.45416536    
 electron kinetic            :      28288.2990293    
 core electron kinetic       :      24583.0161166    
 Coulomb                     :     -49129.9063998    
 Coulomb potential           :     -32808.3982414    
 nuclear-nuclear             :     -12036.0705396    
 electron-nuclear            :     -41379.2734790    
 Hartree                     :      4285.43761880    
 Madelung                    :     -32725.7072791    
 xc potential                :     -762.354953220    
 xc effective B-field        :     0.938521353898E-42
 external B-field            :      0.00000000000    
 exchange                    :     -563.236479132    
 correlation                 :     -10.5705384043    
 electron entropic           :    -0.710223399938E-16
 total energy                :     -21415.4143880    
 (external B-field energy excluded from total)

Density of states at Fermi energy :   0.1887487563E-11
 (states/Hartree/unit cell)

Estimated indirect band gap :    2.729419950    
 from k-point      1 to k-point      1
Estimated direct band gap   :    2.729419950    
 at k-point      1

Charges :
 core                        :    68.00000000    
 valence                     :    14.00000000    
 interstitial                :    15.77090109    
 muffin-tins (core leakage)
  species :    1 (Pb)
   atom    1                 :    66.22909891     (   36.97036504    )
 total in muffin-tins        :    66.22909891    
 total calculated charge     :    45.02980824    
 total charge                :    82.00000000    
 error                       :    36.97019176    

Moments :
 interstitial                :   0.1460046798E-29 -0.4059313016E-31  0.4536194136E-30
 muffin-tins
  species :    1 (Pb)
   atom    1                 :  -0.3496488584E-32 -0.4965768014E-32 -0.5394724409E-33
 total in muffin-tins        :  -0.3496488584E-32 -0.4965768014E-32 -0.5394724409E-33
 total moment                :   0.1456550309E-29 -0.4555889817E-31  0.4530799412E-30

RMS change in Kohn-Sham potential (target) :   0.3240037600E-05 (  0.1000000000E-05)
Absolute change in total energy (target)   :   0.2265267176E-04 (  0.1000000000E-03)

Time (CPU seconds) :        11.13

+--------------------+
| Loop number :   80 |
+--------------------+

Energies :
 Fermi                       :      34.8172784551    
 sum of eigenvalues          :     -5282.45411830    
 electron kinetic            :      28288.2992076    
 core electron kinetic       :      24583.0161515    
 Coulomb                     :     -49129.9062681    
 Coulomb potential           :     -32808.3983751    
 nuclear-nuclear             :     -12036.0705396    
 electron-nuclear            :     -41379.2730820    
 Hartree                     :      4285.43735345    
 Madelung                    :     -32725.7070806    
 xc potential                :     -762.354950842    
 xc effective B-field        :     0.539416676540E-42
 external B-field            :     -0.00000000000    
 exchange                    :     -563.236477353    
 correlation                 :     -10.5705383983    
 electron entropic           :    -0.633401935843E-16
 total energy                :     -21415.4140762    
 (external B-field energy excluded from total)

Density of states at Fermi energy :   0.1887487561E-11
 (states/Hartree/unit cell)

Estimated indirect band gap :    2.729419795    
 from k-point      1 to k-point      1
Estimated direct band gap   :    2.729419795    
 at k-point      1

Charges :
 core                        :    68.00000000    
 valence                     :    14.00000000    
 interstitial                :    15.77089959    
 muffin-tins (core leakage)
  species :    1 (Pb)
   atom    1                 :    66.22910041     (   36.97036504    )
 total in muffin-tins        :    66.22910041    
 total calculated charge     :    45.02981194    
 total charge                :    82.00000000    
 error                       :    36.97018806    

Moments :
 interstitial                :  -0.2881241747E-30 -0.1036133848E-29 -0.5180932354E-30
 muffin-tins
  species :    1 (Pb)
   atom    1                 :   0.1549590157E-32 -0.1398892790E-32  0.3099302509E-32
 total in muffin-tins        :   0.1549590157E-32 -0.1398892790E-32  0.3099302509E-32
 total moment                :  -0.2865745845E-30 -0.1037532741E-29 -0.5149939329E-30

RMS change in Kohn-Sham potential (target) :   0.1126838494E-05 (  0.1000000000E-05)
Absolute change in total energy (target)   :   0.3174796802E-03 (  0.1000000000E-03)

Time (CPU seconds) :        11.23

+--------------------+
| Loop number :   81 |
+--------------------+

Energies :
 Fermi                       :      34.8172783707    
 sum of eigenvalues          :     -5282.45412528    
 electron kinetic            :      28288.2993567    
 core electron kinetic       :      24583.0161724    
 Coulomb                     :     -49129.9061432    
 Coulomb potential           :     -32808.3985334    
 nuclear-nuclear             :     -12036.0705396    
 electron-nuclear            :     -41379.2726739    
 Hartree                     :      4285.43707021    
 Madelung                    :     -32725.7068765    
 xc potential                :     -762.354948582    
 xc effective B-field        :     0.177955336163E-32
 external B-field            :      0.00000000000    
 exchange                    :     -563.236475663    
 correlation                 :     -10.5705383926    
 electron entropic           :    -0.633401935843E-16
 total energy                :     -21415.4138005    
 (external B-field energy excluded from total)

Density of states at Fermi energy :   0.1887487561E-11
 (states/Hartree/unit cell)

Estimated indirect band gap :    2.729419798    
 from k-point      1 to k-point      1
Estimated direct band gap   :    2.729419798    
 at k-point      1

Charges :
 core                        :    68.00000000    
 valence                     :    14.00000000    
 interstitial                :    15.77089791    
 muffin-tins (core leakage)
  species :    1 (Pb)
   atom    1                 :    66.22910209     (   36.97036504    )
 total in muffin-tins        :    66.22910209    
 total calculated charge     :    45.02981609    
 total charge                :    82.00000000    
 error                       :    36.97018391    

Moments :
 interstitial                :   0.2130667145E-25 -0.5479362936E-26  0.2778733447E-25
 muffin-tins
  species :    1 (Pb)
   atom    1                 :   0.1144103011E-28  0.1457821509E-28 -0.2282356427E-29
 total in muffin-tins        :   0.1144103011E-28  0.1457821509E-28 -0.2282356427E-29
 total moment                :   0.2131811248E-25 -0.5464784721E-26  0.2778505211E-25

RMS change in Kohn-Sham potential (target) :   0.4403164894E-05 (  0.1000000000E-05)
Absolute change in total energy (target)   :   0.3550584333E-03 (  0.1000000000E-03)

Time (CPU seconds) :        11.33

+--------------------+
| Loop number :   82 |
+--------------------+

Energies :
 Fermi                       :      34.8172775676    
 sum of eigenvalues          :     -5282.45418411    
 electron kinetic            :      28288.2991368    
 core electron kinetic       :      24583.0161310    
 Coulomb                     :     -49129.9063039    
 Coulomb potential           :     -32808.3983695    
 nuclear-nuclear             :     -12036.0705396    
 electron-nuclear            :     -41379.2731592    
 Hartree                     :      4285.43739485    
 Madelung                    :     -32725.7071192    
 xc potential                :     -762.354951442    
 xc effective B-field        :      0.00000000000    
 external B-field            :      0.00000000000    
 exchange                    :     -563.236477802    
 correlation                 :     -10.5705383998    
 electron entropic           :    -0.710223399938E-16
 total energy                :     -21415.4141833    
 (external B-field energy excluded from total)

Density of states at Fermi energy :   0.1887487563E-11
 (states/Hartree/unit cell)

Estimated indirect band gap :    2.729419981    
 from k-point      1 to k-point      1
Estimated direct band gap   :    2.729419981    
 at k-point      1

Charges :
 core                        :    68.00000000    
 valence                     :    14.00000000    
 interstitial                :    15.77089980    
 muffin-tins (core leakage)
  species :    1 (Pb)
   atom    1                 :    66.22910020     (   36.97036503    )
 total in muffin-tins        :    66.22910020    
 total calculated charge     :    45.02981141    
 total charge                :    82.00000000    
 error                       :    36.97018859    

Moments :
 interstitial                :   0.1439218723E-30 -0.1563480001E-30  0.5959475018E-31
 muffin-tins
  species :    1 (Pb)
   atom    1                 :  -0.2258712186E-32 -0.1471603901E-32 -0.1474842815E-32
 total in muffin-tins        :  -0.2258712186E-32 -0.1471603901E-32 -0.1474842815E-32
 total moment                :   0.1416631602E-30 -0.1578196040E-30  0.5811990736E-31

RMS change in Kohn-Sham potential (target) :   0.7633466454E-06 (  0.1000000000E-05)
Absolute change in total energy (target)   :   0.2939897167E-03 (  0.1000000000E-03)

Time (CPU seconds) :        11.44

+--------------------+
| Loop number :   83 |
+--------------------+

Energies :
 Fermi                       :      34.8172776412    
 sum of eigenvalues          :     -5282.45417918    
 electron kinetic            :      28288.2991623    
 core electron kinetic       :      24583.0161339    
 Coulomb                     :     -49129.9062895    
 Coulomb potential           :     -32808.3983903    
 nuclear-nuclear             :     -12036.0705396    
 electron-nuclear            :     -41379.2731095    
 Hartree                     :      4285.43735961    
 Madelung                    :     -32725.7070943    
 xc potential                :     -762.354951178    
 xc effective B-field        :     0.111743212014E-30
 external B-field            :      0.00000000000    
 exchange                    :     -563.236477604    
 correlation                 :     -10.5705383992    
 electron entropic           :    -0.633401935843E-16
 total energy                :     -21415.4141432    
 (external B-field energy excluded from total)

Density of states at Fermi energy :   0.1887487562E-11
 (states/Hartree/unit cell)

Estimated indirect band gap :    2.729419954    
 from k-point      1 to k-point      1
Estimated direct band gap   :    2.729419954    
 at k-point      1

Charges :
 core                        :    68.00000000    
 valence                     :    14.00000000    
 interstitial                :    15.77089952    
 muffin-tins (core leakage)
  species :    1 (Pb)
   atom    1                 :    66.22910048     (   36.97036503    )
 total in muffin-tins        :    66.22910048    
 total calculated charge     :    45.02981209    
 total charge                :    82.00000000    
 error                       :    36.97018791    

Moments :
 interstitial                :   0.4732624485E-26 -0.5141219033E-26 -0.4922555577E-26
 muffin-tins
  species :    1 (Pb)
   atom    1                 :  -0.4177148619E-29 -0.1896524399E-29  0.6002655573E-29
 total in muffin-tins        :  -0.4177148619E-29 -0.1896524399E-29  0.6002655573E-29
 total moment                :   0.4728447337E-26 -0.5143115558E-26 -0.4916552921E-26

RMS change in Kohn-Sham potential (target) :   0.7348250875E-06 (  0.1000000000E-05)
Absolute change in total energy (target)   :   0.3338752140E-04 (  0.1000000000E-03)

Convergence targets achieved

Time (CPU seconds) :        11.54

+--------------------+
| Loop number :   84 |
+--------------------+

Energies :
 Fermi                       :      34.8172776372    
 sum of eigenvalues          :     -5282.45417915    
 electron kinetic            :      28288.2990390    
 core electron kinetic       :      24583.0161144    
 Coulomb                     :     -49129.9063923    
 Coulomb potential           :     -32808.3982651    
 nuclear-nuclear             :     -12036.0705396    
 electron-nuclear            :     -41379.2734404    
 Hartree                     :      4285.43758768    
 Madelung                    :     -32725.7072598    
 xc potential                :     -762.354953040    
 xc effective B-field        :      0.00000000000    
 external B-field            :      0.00000000000    
 exchange                    :     -563.236478998    
 correlation                 :     -10.5705384039    
 electron entropic           :    -0.710223399938E-16
 total energy                :     -21415.4143708    
 (external B-field energy excluded from total)

Density of states at Fermi energy :   0.1887487563E-11
 (states/Hartree/unit cell)

Estimated indirect band gap :    2.729419963    
 from k-point      1 to k-point      1
Estimated direct band gap   :    2.729419963    
 at k-point      1

Charges :
 core                        :    68.00000000    
 valence                     :    14.00000000    
 interstitial                :    15.77090088    
 muffin-tins (core leakage)
  species :    1 (Pb)
   atom    1                 :    66.22909912     (   36.97036504    )
 total in muffin-tins        :    66.22909912    
 total calculated charge     :    45.02980874    
 total charge                :    82.00000000    
 error                       :    36.97019126    

Moments :
 interstitial                :  -0.4295425441E-31  0.1449592327E-31  0.1706561946E-30
 muffin-tins
  species :    1 (Pb)
   atom    1                 :   0.4927002901E-32 -0.4394280131E-32 -0.1422638986E-32
 total in muffin-tins        :   0.4927002901E-32 -0.4394280131E-32 -0.1422638986E-32
 total moment                :  -0.3802725151E-31  0.1010164314E-31  0.1692335556E-30

+------------------------------+
| Self-consistent loop stopped |
+------------------------------+

Wrote STATE.OUT

Timings (CPU seconds) :
 initialisation                        :         2.90
 Hamiltonian and overlap matrix set up :         0.18
 first-variational eigenvalue equation :         0.12
 second-variational calculation        :         1.89
 charge density calculation            :         0.71
 potential calculation                 :         5.84
 total                                 :        11.64

+----------------------------+
| Elk version 4.0.15 stopped |
+----------------------------+
