
CRYSTAL

PRIMVEC
 -0.9834073872       1.636664737       0.000000000    
  0.5277221565       1.091109825      -1.881323411    
  -2.038851700     -0.5455549124      -1.881323411    

PRIMCOORD
       1       1
Hg   0.000000000       0.000000000       0.000000000    
