
CRYSTAL

PRIMVEC
   1.304421825       1.304421825       0.000000000    
   1.304421825      -1.304421825       0.000000000    
   1.304421825       0.000000000       1.304421825    

PRIMCOORD
       1       1
Pb   0.000000000       0.000000000       0.000000000    
