+----------------------------+
| Elk version 4.0.15 started |
+----------------------------+

Date (YYYY-MM-DD) : 2018-11-23
Time (hh:mm:ss)   : 09:31:50

All units are atomic (Hartree, Bohr, etc.)

+-------------------------------------------------+
| Ground-state run starting from atomic densities |
+-------------------------------------------------+

Lattice vectors :
   0.000000000      0.5000000000      0.5000000000    
  0.5000000000       0.000000000      0.5000000000    
  0.5000000000      0.5000000000       0.000000000    

Reciprocal lattice vectors :
  -6.283185307       6.283185307       6.283185307    
   6.283185307      -6.283185307       6.283185307    
   6.283185307       6.283185307      -6.283185307    

Unit cell volume      :   0.2500000000    
Brillouin zone volume :    992.2008538    

Species :    1 (Pb)
 parameters loaded from : Pb.in
 name : lead
 nuclear charge    :   -82.00000000    
 electronic charge :    82.00000000    
 atomic mass :    377702.4940    
 muffin-tin radius :   0.3285533906    
 number of radial points in muffin-tin :    697
 number on inner part of muffin-tin    :    469
 atomic positions (lattice), magnetic fields (Cartesian) :
   1 :   0.00000000  0.00000000  0.00000000    0.00000000  0.00000000  0.00000000

Total number of atoms per unit cell :    1

Spin treatment :
 spin-unpolarised

Number of Bravais lattice symmetries :   48
Number of crystal symmetries         :   48
Crystal has inversion symmetry
Real symmetric eigensolver will be used

k-point grid :      8     8     8
k-point offset :    0.000000000       0.000000000       0.000000000    
k-point set is reduced with full crystal symmetry group
Total number of k-points :       29

Muffin-tin radius times maximum |G+k| :    8.000000000    
 using average radius
Maximum |G+k| for APW functions       :    24.34916281    
Maximum (1/2)|G+k|^2                  :    296.4408648    
Maximum |G| for potential and density :    48.69832662    
Constant for pseudocharge density :    4
Radial integration step length :    4

G-vector grid sizes :     12    12    12
Number of G-vectors :      531

Maximum angular momentum used for
 APW functions                      :    8
 H and O matrix elements outer loop :    7
 outer part of muffin-tin           :    7
 inner part of muffin-tin           :    3

Total nuclear charge    :   -82.00000000    
Total core charge       :    68.00000000    
Total valence charge    :    14.00000000    
Total excess charge     :    0.000000000    
Total electronic charge :    82.00000000    

Effective Wigner radius, r_s :   0.8995235040E-01

Number of empty states         :    4
Total number of valence states :   12
Total number of core states    :   68

Total number of local-orbitals :   15

Exchange-correlation functional :      3     0     0
 Perdew-Wang/Ceperley-Alder, Phys. Rev. B 45, 13244 (1992)
 Local density approximation (LDA)

Smearing type :    3
 Fermi-Dirac
Smearing width :   0.1000000000E-02
Effective electronic temperature (K) :    315.7750425    

Mixing type :    1
 Adaptive linear mixing

Density and potential initialised from atomic data

+------------------------------+
| Self-consistent loop started |
+------------------------------+

+--------------------+
| Loop number :    1 |
+--------------------+

Energies :
 Fermi                       :      23.9020819926    
 sum of eigenvalues          :     -5862.37087525    
 electron kinetic            :      28452.5124700    
 core electron kinetic       :      25280.8906321    
 Coulomb                     :     -50059.9672136    
 Coulomb potential           :     -33538.4639968    
 nuclear-nuclear             :     -12036.0705396    
 electron-nuclear            :     -42509.3293513    
 Hartree                     :      4485.43267727    
 Madelung                    :     -33290.7352152    
 xc potential                :     -776.419348430    
 exchange                    :     -573.758128632    
 correlation                 :     -10.6057134268    
 electron entropic           :    -0.353222026310E-04
 total energy                :     -22191.8186210    

Density of states at Fermi energy :    10.25390625    
 (states/Hartree/unit cell)

Estimated indirect band gap :   0.2724668933E-01
 from k-point     11 to k-point      2
Estimated direct band gap   :   0.5754342911    
 at k-point     15

Charges :
 core                        :    68.00000000    
 valence                     :    14.00000000    
 interstitial                :    14.94343802    
 muffin-tins (core leakage)
  species :    1 (Pb)
   atom    1                 :    67.05656198     (   35.23148177    )
 total in muffin-tins        :    67.05656198    
 total calculated charge     :    46.76943585    
 total charge                :    82.00000000    
 error                       :    35.23056415    

Time (CPU seconds) :         3.19

+--------------------+
| Loop number :    2 |
+--------------------+

Energies :
 Fermi                       :      25.6422545000    
 sum of eigenvalues          :     -5787.10073711    
 electron kinetic            :      28417.6020375    
 core electron kinetic       :      25153.9649429    
 Coulomb                     :     -49919.9843143    
 Coulomb potential           :     -33430.5318303    
 nuclear-nuclear             :     -12036.0705396    
 electron-nuclear            :     -42337.2957191    
 Hartree                     :      4453.38194437    
 Madelung                    :     -33204.7183991    
 xc potential                :     -774.170944289    
 exchange                    :     -572.076108517    
 correlation                 :     -10.6000628734    
 electron entropic           :    -0.353222026100E-04
 total energy                :     -22085.0584835    

Density of states at Fermi energy :    10.25390625    
 (states/Hartree/unit cell)

Estimated indirect band gap :   0.3489522461E-01
 from k-point     11 to k-point      2
Estimated direct band gap   :   0.6154229621    
 at k-point     15

Charges :
 core                        :    68.00000000    
 valence                     :    14.00000000    
 interstitial                :    15.09067774    
 muffin-tins (core leakage)
  species :    1 (Pb)
   atom    1                 :    66.90932226     (   35.47161454    )
 total in muffin-tins        :    66.90932226    
 total calculated charge     :    46.52927914    
 total charge                :    82.00000000    
 error                       :    35.47072086    

RMS change in Kohn-Sham potential (target) :    20.40923473     (  0.1000000000E-05)
Absolute change in total energy (target)   :    106.7601376     (  0.1000000000E-03)

Time (CPU seconds) :         3.44

+--------------------+
| Loop number :    3 |
+--------------------+

Energies :
 Fermi                       :      27.8685804874    
 sum of eigenvalues          :     -5690.79290022    
 electron kinetic            :      28368.8603432    
 core electron kinetic       :      25011.7716220    
 Coulomb                     :     -49735.2932135    
 Coulomb potential           :     -33288.4371455    
 nuclear-nuclear             :     -12036.0705396    
 electron-nuclear            :     -42110.0082023    
 Hartree                     :      4410.78552837    
 Madelung                    :     -33091.0746407    
 xc potential                :     -771.216097926    
 exchange                    :     -569.865620370    
 correlation                 :     -10.5926127650    
 electron entropic           :    -0.353222026315E-04
 total energy                :     -21946.8911387    

Density of states at Fermi energy :    10.25390626    
 (states/Hartree/unit cell)

Estimated indirect band gap :   0.4704698172E-01
 from k-point     11 to k-point      2
Estimated direct band gap   :   0.6704264004    
 at k-point     15

Charges :
 core                        :    68.00000000    
 valence                     :    14.00000000    
 interstitial                :    15.28423266    
 muffin-tins (core leakage)
  species :    1 (Pb)
   atom    1                 :    66.71576734     (   35.77426039    )
 total in muffin-tins        :    66.71576734    
 total calculated charge     :    46.22659854    
 total charge                :    82.00000000    
 error                       :    35.77340146    

RMS change in Kohn-Sham potential (target) :    15.81202869     (  0.1000000000E-05)
Absolute change in total energy (target)   :    164.8573792     (  0.1000000000E-03)

Time (CPU seconds) :         3.69

+--------------------+
| Loop number :    4 |
+--------------------+

Energies :
 Fermi                       :      30.1949671969    
 sum of eigenvalues          :     -5590.23456794    
 electron kinetic            :      28314.0528386    
 core electron kinetic       :      24877.3616284    
 Coulomb                     :     -49536.9749126    
 Coulomb potential           :     -33136.2334457    
 nuclear-nuclear             :     -12036.0705396    
 electron-nuclear            :     -41865.5753003    
 Hartree                     :      4364.67092730    
 Madelung                    :     -32968.8581897    
 xc potential                :     -768.053960817    
 exchange                    :     -567.500089003    
 correlation                 :     -10.5846016210    
 electron entropic           :    -0.353272874358E-04
 total energy                :     -21801.0067999    

Density of states at Fermi energy :    10.25403345    
 (states/Hartree/unit cell)

Estimated indirect band gap :   0.6304506265E-01
 from k-point     11 to k-point      2
Estimated direct band gap   :   0.7330260607    
 at k-point     15

Charges :
 core                        :    68.00000000    
 valence                     :    14.00000000    
 interstitial                :    15.49365794    
 muffin-tins (core leakage)
  species :    1 (Pb)
   atom    1                 :    66.50634206     (   36.08626794    )
 total in muffin-tins        :    66.50634206    
 total calculated charge     :    45.91455030    
 total charge                :    82.00000000    
 error                       :    36.08544970    

RMS change in Kohn-Sham potential (target) :    10.99536941     (  0.1000000000E-05)
Absolute change in total energy (target)   :    187.0986835     (  0.1000000000E-03)

Time (CPU seconds) :         3.94

+--------------------+
| Loop number :    5 |
+--------------------+

Energies :
 Fermi                       :      32.2997987254    
 sum of eigenvalues          :     -5500.44193420    
 electron kinetic            :      28263.2295704    
 core electron kinetic       :      24768.4575418    
 Coulomb                     :     -49357.0782088    
 Coulomb potential           :     -32998.4831558    
 nuclear-nuclear             :     -12036.0705396    
 electron-nuclear            :     -41643.5321826    
 Hartree                     :      4322.52451344    
 Madelung                    :     -32857.8366309    
 xc potential                :     -765.188348847    
 exchange                    :     -565.356415837    
 correlation                 :     -10.5772968138    
 electron entropic           :    -0.201556805080E-04
 total energy                :     -21669.7823712    

Density of states at Fermi energy :    6.735520135    
 (states/Hartree/unit cell)

Estimated indirect band gap :   0.5798921563E-01
 from k-point     13 to k-point      2
Estimated direct band gap   :   0.7940338076    
 at k-point     15

Charges :
 core                        :    68.00000000    
 valence                     :    14.00000000    
 interstitial                :    15.68820136    
 muffin-tins (core leakage)
  species :    1 (Pb)
   atom    1                 :    66.31179864     (   36.36286693    )
 total in muffin-tins        :    66.31179864    
 total calculated charge     :    45.63791252    
 total charge                :    82.00000000    
 error                       :    36.36208748    

RMS change in Kohn-Sham potential (target) :    6.741364343     (  0.1000000000E-05)
Absolute change in total energy (target)   :    177.9990997     (  0.1000000000E-03)

Time (CPU seconds) :         4.19

+--------------------+
| Loop number :    6 |
+--------------------+

Energies :
 Fermi                       :      33.9588682699    
 sum of eigenvalues          :     -5430.70050334    
 electron kinetic            :      28224.8908630    
 core electron kinetic       :      24693.2843116    
 Coulomb                     :     -49218.5469849    
 Coulomb potential           :     -32892.6181548    
 nuclear-nuclear             :     -12036.0705396    
 electron-nuclear            :     -41472.3347359    
 Hartree                     :      4289.85829055    
 Madelung                    :     -32772.2379075    
 xc potential                :     -762.973211556    
 exchange                    :     -563.699374099    
 correlation                 :     -10.5716077024    
 electron entropic           :    -0.200116666229E-04
 total energy                :     -21567.9271237    

Density of states at Fermi energy :    6.695501468    
 (states/Hartree/unit cell)

Estimated indirect band gap :   0.4556523557E-01
 from k-point     13 to k-point      2
Estimated direct band gap   :   0.8450214430    
 at k-point     15

Charges :
 core                        :    68.00000000    
 valence                     :    14.00000000    
 interstitial                :    15.84467262    
 muffin-tins (core leakage)
  species :    1 (Pb)
   atom    1                 :    66.15532738     (   36.57710911    )
 total in muffin-tins        :    66.15532738    
 total calculated charge     :    45.42363753    
 total charge                :    82.00000000    
 error                       :    36.57636247    

RMS change in Kohn-Sham potential (target) :    3.556983285     (  0.1000000000E-05)
Absolute change in total energy (target)   :    146.3550224     (  0.1000000000E-03)

Time (CPU seconds) :         4.45

+--------------------+
| Loop number :    7 |
+--------------------+

Energies :
 Fermi                       :      35.1034916074    
 sum of eigenvalues          :     -5383.27329121    
 electron kinetic            :      28202.2856463    
 core electron kinetic       :      24650.1189561    
 Coulomb                     :     -49128.6326439    
 Coulomb potential           :     -32824.0406863    
 nuclear-nuclear             :     -12036.0705396    
 electron-nuclear            :     -41361.0835224    
 Hartree                     :      4268.52141801    
 Madelung                    :     -32716.6123007    
 xc potential                :     -761.518251153    
 exchange                    :     -562.611012223    
 correlation                 :     -10.5678355695    
 electron entropic           :    -0.199036355162E-04
 total energy                :     -21499.5258653    

Density of states at Fermi energy :    6.665763663    
 (states/Hartree/unit cell)

Estimated indirect band gap :   0.3583976124E-01
 from k-point     13 to k-point      2
Estimated direct band gap   :   0.8815782936    
 at k-point     15

Charges :
 core                        :    68.00000000    
 valence                     :    14.00000000    
 interstitial                :    15.95351926    
 muffin-tins (core leakage)
  species :    1 (Pb)
   atom    1                 :    66.04648074     (   36.72229662    )
 total in muffin-tins        :    66.04648074    
 total calculated charge     :    45.27842756    
 total charge                :    82.00000000    
 error                       :    36.72157244    

RMS change in Kohn-Sham potential (target) :    1.557258491     (  0.1000000000E-05)
Absolute change in total energy (target)   :    104.9900140     (  0.1000000000E-03)

Time (CPU seconds) :         4.69

+--------------------+
| Loop number :    8 |
+--------------------+

Energies :
 Fermi                       :      35.8007166980    
 sum of eigenvalues          :     -5354.90158009    
 electron kinetic            :      28193.0586599    
 core electron kinetic       :      24630.5847366    
 Coulomb                     :     -49080.2809313    
 Coulomb potential           :     -32787.2444644    
 nuclear-nuclear             :     -12036.0705396    
 electron-nuclear            :     -41301.1763191    
 Hartree                     :      4256.96592735    
 Madelung                    :     -32686.6586991    
 xc potential                :     -760.715775561    
 exchange                    :     -562.010753040    
 correlation                 :     -10.5657273227    
 electron entropic           :    -0.198272188681E-04
 total energy                :     -21459.7987716    

Density of states at Fermi energy :    6.644876675    
 (states/Hartree/unit cell)

Estimated indirect band gap :   0.2937769684E-01
 from k-point     13 to k-point      2
Estimated direct band gap   :   0.9037711315    
 at k-point     15

Charges :
 core                        :    68.00000000    
 valence                     :    14.00000000    
 interstitial                :    16.01880891    
 muffin-tins (core leakage)
  species :    1 (Pb)
   atom    1                 :    65.98119109     (   36.80810742    )
 total in muffin-tins        :    65.98119109    
 total calculated charge     :    45.19260380    
 total charge                :    82.00000000    
 error                       :    36.80739620    

RMS change in Kohn-Sham potential (target) :   0.5316124794     (  0.1000000000E-05)
Absolute change in total energy (target)   :    65.97459719     (  0.1000000000E-03)

Time (CPU seconds) :         4.94

+--------------------+
| Loop number :    9 |
+--------------------+

Energies :
 Fermi                       :      36.1780849115    
 sum of eigenvalues          :     -5339.80906370    
 electron kinetic            :      28191.9223288    
 core electron kinetic       :      24624.6462887    
 Coulomb                     :     -49059.4049825    
 Coulomb potential           :     -32771.3800363    
 nuclear-nuclear             :     -12036.0705396    
 electron-nuclear            :     -41275.2888494    
 Hartree                     :      4251.95440656    
 Madelung                    :     -32673.7149643    
 xc potential                :     -760.351356173    
 exchange                    :     -561.738179857    
 correlation                 :     -10.5647491923    
 electron entropic           :    -0.197921614580E-04
 total energy                :     -21439.7856025    

Density of states at Fermi energy :    6.635335976    
 (states/Hartree/unit cell)

Estimated indirect band gap :   0.2573105025E-01
 from k-point     13 to k-point      2
Estimated direct band gap   :   0.9150512894    
 at k-point     15

Charges :
 core                        :    68.00000000    
 valence                     :    14.00000000    
 interstitial                :    16.05258342    
 muffin-tins (core leakage)
  species :    1 (Pb)
   atom    1                 :    65.94741658     (   36.85226916    )
 total in muffin-tins        :    65.94741658    
 total calculated charge     :    45.14843660    
 total charge                :    82.00000000    
 error                       :    36.85156340    

RMS change in Kohn-Sham potential (target) :   0.1324186670     (  0.1000000000E-05)
Absolute change in total energy (target)   :    36.50681844     (  0.1000000000E-03)

Time (CPU seconds) :         5.19

+--------------------+
| Loop number :   10 |
+--------------------+

Energies :
 Fermi                       :      36.3624623379    
 sum of eigenvalues          :     -5332.48047226    
 electron kinetic            :      28194.0409867    
 core electron kinetic       :      24624.4658536    
 Coulomb                     :     -49052.6440185    
 Coulomb potential           :     -32766.3019723    
 nuclear-nuclear             :     -12036.0705396    
 electron-nuclear            :     -41266.8449855    
 Hartree                     :      4250.27150663    
 Madelung                    :     -32669.4930323    
 xc potential                :     -760.219486756    
 exchange                    :     -561.639556914    
 correlation                 :     -10.5643807082    
 electron entropic           :    -0.198027460144E-04
 total energy                :     -21430.8069891    

Density of states at Fermi energy :    6.638213729    
 (states/Hartree/unit cell)

Estimated indirect band gap :   0.2399552220E-01
 from k-point     13 to k-point      2
Estimated direct band gap   :   0.9198174717    
 at k-point     15

Charges :
 core                        :    68.00000000    
 valence                     :    14.00000000    
 interstitial                :    16.06780612    
 muffin-tins (core leakage)
  species :    1 (Pb)
   atom    1                 :    65.93219388     (   36.87225014    )
 total in muffin-tins        :    65.93219388    
 total calculated charge     :    45.12845361    
 total charge                :    82.00000000    
 error                       :    36.87154639    

RMS change in Kohn-Sham potential (target) :   0.5144277615E-01 (  0.1000000000E-05)
Absolute change in total energy (target)   :    18.10531797     (  0.1000000000E-03)

Time (CPU seconds) :         5.44

+--------------------+
| Loop number :   11 |
+--------------------+

Energies :
 Fermi                       :      36.4458086640    
 sum of eigenvalues          :     -5329.24219087    
 electron kinetic            :      28196.1568738    
 core electron kinetic       :      24625.3915236    
 Coulomb                     :     -49051.2237933    
 Coulomb potential           :     -32765.2166959    
 nuclear-nuclear             :     -12036.0705396    
 electron-nuclear            :     -41265.0898116    
 Hartree                     :      4249.93655783    
 Madelung                    :     -32668.6154454    
 xc potential                :     -760.182368719    
 exchange                    :     -561.611803663    
 correlation                 :     -10.5642680400    
 electron entropic           :    -0.197819618914E-04
 total energy                :     -21427.2430110    

Density of states at Fermi energy :    6.632565130    
 (states/Hartree/unit cell)

Estimated indirect band gap :   0.2329908150E-01
 from k-point     13 to k-point      2
Estimated direct band gap   :   0.9214827523    
 at k-point     15

Charges :
 core                        :    68.00000000    
 valence                     :    14.00000000    
 interstitial                :    16.07421684    
 muffin-tins (core leakage)
  species :    1 (Pb)
   atom    1                 :    65.92578316     (   36.88118193    )
 total in muffin-tins        :    65.92578316    
 total calculated charge     :    45.11952107    
 total charge                :    82.00000000    
 error                       :    36.88047893    

RMS change in Kohn-Sham potential (target) :   0.3791533388E-01 (  0.1000000000E-05)
Absolute change in total energy (target)   :    8.090307597     (  0.1000000000E-03)

Time (CPU seconds) :         5.69

+--------------------+
| Loop number :   12 |
+--------------------+

Energies :
 Fermi                       :      36.4820743416    
 sum of eigenvalues          :     -5327.69387306    
 electron kinetic            :      28197.6641306    
 core electron kinetic       :      24626.2896499    
 Coulomb                     :     -49051.2183423    
 Coulomb potential           :     -32765.1825700    
 nuclear-nuclear             :     -12036.0705396    
 electron-nuclear            :     -41265.1130354    
 Hartree                     :      4249.96523272    
 Madelung                    :     -32668.6270573    
 xc potential                :     -760.175433649    
 exchange                    :     -561.606621876    
 correlation                 :     -10.5642421793    
 electron entropic           :    -0.197534574040E-04
 total energy                :     -21425.7250955    

Density of states at Fermi energy :    6.624833421    
 (states/Hartree/unit cell)

Estimated indirect band gap :   0.2307971940E-01
 from k-point     13 to k-point      2
Estimated direct band gap   :   0.9219402578    
 at k-point     15

Charges :
 core                        :    68.00000000    
 valence                     :    14.00000000    
 interstitial                :    16.07666815    
 muffin-tins (core leakage)
  species :    1 (Pb)
   atom    1                 :    65.92333185     (   36.88484859    )
 total in muffin-tins        :    65.92333185    
 total calculated charge     :    45.11585407    
 total charge                :    82.00000000    
 error                       :    36.88414593    

RMS change in Kohn-Sham potential (target) :   0.2462900670E-01 (  0.1000000000E-05)
Absolute change in total energy (target)   :    3.540492419     (  0.1000000000E-03)

Time (CPU seconds) :         5.94

+--------------------+
| Loop number :   13 |
+--------------------+

Energies :
 Fermi                       :      36.4974552570    
 sum of eigenvalues          :     -5326.91991898    
 electron kinetic            :      28198.6032609    
 core electron kinetic       :      24626.9305667    
 Coulomb                     :     -49051.4567903    
 Coulomb potential           :     -32765.3469008    
 nuclear-nuclear             :     -12036.0705396    
 electron-nuclear            :     -41265.4256006    
 Hartree                     :      4250.03934987    
 Madelung                    :     -32668.7833399    
 xc potential                :     -760.176279078    
 exchange                    :     -561.607256827    
 correlation                 :     -10.5642409398    
 electron entropic           :    -0.197325350187E-04
 total energy                :     -21425.0250468    

Density of states at Fermi energy :    6.619169465    
 (states/Hartree/unit cell)

Estimated indirect band gap :   0.2304480670E-01
 from k-point     13 to k-point      2
Estimated direct band gap   :   0.9220022696    
 at k-point     15

Charges :
 core                        :    68.00000000    
 valence                     :    14.00000000    
 interstitial                :    16.07747879    
 muffin-tins (core leakage)
  species :    1 (Pb)
   atom    1                 :    65.92252121     (   36.88615628    )
 total in muffin-tins        :    65.92252121    
 total calculated charge     :    45.11454617    
 total charge                :    82.00000000    
 error                       :    36.88545383    

RMS change in Kohn-Sham potential (target) :   0.1372662569E-01 (  0.1000000000E-05)
Absolute change in total energy (target)   :    1.585171768     (  0.1000000000E-03)

Time (CPU seconds) :         6.19

+--------------------+
| Loop number :   14 |
+--------------------+

Energies :
 Fermi                       :      36.5038663220    
 sum of eigenvalues          :     -5326.51933548    
 electron kinetic            :      28199.1331166    
 core electron kinetic       :      24627.3210553    
 Coulomb                     :     -49051.6306099    
 Coulomb potential           :     -32765.4745119    
 nuclear-nuclear             :     -12036.0705396    
 electron-nuclear            :     -41265.6456288    
 Hartree                     :      4250.08555844    
 Madelung                    :     -32668.8933540    
 xc potential                :     -760.177940122    
 exchange                    :     -561.608500285    
 correlation                 :     -10.5642439548    
 electron entropic           :    -0.197212978714E-04
 total energy                :     -21424.6702573    

Density of states at Fermi energy :    6.616131332    
 (states/Hartree/unit cell)

Estimated indirect band gap :   0.2305789376E-01
 from k-point     13 to k-point      2
Estimated direct band gap   :   0.9219730035    
 at k-point     15

Charges :
 core                        :    68.00000000    
 valence                     :    14.00000000    
 interstitial                :    16.07768119    
 muffin-tins (core leakage)
  species :    1 (Pb)
   atom    1                 :    65.92231881     (   36.88651309    )
 total in muffin-tins        :    65.92231881    
 total calculated charge     :    45.11418921    
 total charge                :    82.00000000    
 error                       :    36.88581079    

RMS change in Kohn-Sham potential (target) :   0.6814197828E-02 (  0.1000000000E-05)
Absolute change in total energy (target)   :   0.7510824599     (  0.1000000000E-03)

Time (CPU seconds) :         6.43

+--------------------+
| Loop number :   15 |
+--------------------+

Energies :
 Fermi                       :      36.5064739519    
 sum of eigenvalues          :     -5326.31275808    
 electron kinetic            :      28199.4085989    
 core electron kinetic       :      24627.5340930    
 Coulomb                     :     -49051.7186043    
 Coulomb potential           :     -32765.5423507    
 nuclear-nuclear             :     -12036.0705396    
 electron-nuclear            :     -41265.7537788    
 Hartree                     :      4250.10571405    
 Madelung                    :     -32668.9474290    
 xc potential                :     -760.179006292    
 exchange                    :     -561.609298085    
 correlation                 :     -10.5642463315    
 electron entropic           :    -0.197166310255E-04
 total energy                :     -21424.4835695    

Density of states at Fermi energy :    6.614870383    
 (states/Hartree/unit cell)

Estimated indirect band gap :   0.2307317395E-01
 from k-point     13 to k-point      2
Estimated direct band gap   :   0.9219418513    
 at k-point     15

Charges :
 core                        :    68.00000000    
 valence                     :    14.00000000    
 interstitial                :    16.07769339    
 muffin-tins (core leakage)
  species :    1 (Pb)
   atom    1                 :    65.92230661     (   36.88654632    )
 total in muffin-tins        :    65.92230661    
 total calculated charge     :    45.11415587    
 total charge                :    82.00000000    
 error                       :    36.88584413    

RMS change in Kohn-Sham potential (target) :   0.3067989822E-02 (  0.1000000000E-05)
Absolute change in total energy (target)   :   0.3744584058     (  0.1000000000E-03)

Time (CPU seconds) :         6.69

+--------------------+
| Loop number :   16 |
+--------------------+

Energies :
 Fermi                       :      36.5074877625    
 sum of eigenvalues          :     -5326.21159996    
 electron kinetic            :      28199.5403554    
 core electron kinetic       :      24627.6390244    
 Coulomb                     :     -49051.7555064    
 Coulomb potential           :     -32765.5724260    
 nuclear-nuclear             :     -12036.0705396    
 electron-nuclear            :     -41265.7975076    
 Hartree                     :      4250.11254083    
 Madelung                    :     -32668.9692934    
 xc potential                :     -760.179529408    
 exchange                    :     -561.609689433    
 correlation                 :     -10.5642476175    
 electron entropic           :    -0.197153330628E-04
 total energy                :     -21424.3891077    

Density of states at Fermi energy :    6.614519767    
 (states/Hartree/unit cell)

Estimated indirect band gap :   0.2308211940E-01
 from k-point     13 to k-point      2
Estimated direct band gap   :   0.9219236112    
 at k-point     15

Charges :
 core                        :    68.00000000    
 valence                     :    14.00000000    
 interstitial                :    16.07766653    
 muffin-tins (core leakage)
  species :    1 (Pb)
   atom    1                 :    65.92233347     (   36.88650468    )
 total in muffin-tins        :    65.92233347    
 total calculated charge     :    45.11419744    
 total charge                :    82.00000000    
 error                       :    36.88580256    

RMS change in Kohn-Sham potential (target) :   0.1257377346E-02 (  0.1000000000E-05)
Absolute change in total energy (target)   :   0.1880764238     (  0.1000000000E-03)

Time (CPU seconds) :         6.94

+--------------------+
| Loop number :   17 |
+--------------------+

Energies :
 Fermi                       :      36.5078572387    
 sum of eigenvalues          :     -5326.16645686    
 electron kinetic            :      28199.5975025    
 core electron kinetic       :      24627.6851904    
 Coulomb                     :     -49051.7689227    
 Coulomb potential           :     -32765.5842136    
 nuclear-nuclear             :     -12036.0705396    
 electron-nuclear            :     -41265.8125527    
 Hartree                     :      4250.11416952    
 Madelung                    :     -32668.9768159    
 xc potential                :     -760.179745762    
 exchange                    :     -561.609851262    
 correlation                 :     -10.5642481852    
 electron entropic           :    -0.197153274283E-04
 total energy                :     -21424.3455393    

Density of states at Fermi energy :    6.614518245    
 (states/Hartree/unit cell)

Estimated indirect band gap :   0.2308624287E-01
 from k-point     13 to k-point      2
Estimated direct band gap   :   0.9219152409    
 at k-point     15

Charges :
 core                        :    68.00000000    
 valence                     :    14.00000000    
 interstitial                :    16.07764483    
 muffin-tins (core leakage)
  species :    1 (Pb)
   atom    1                 :    65.92235517     (   36.88646753    )
 total in muffin-tins        :    65.92235517    
 total calculated charge     :    45.11423455    
 total charge                :    82.00000000    
 error                       :    36.88576545    

RMS change in Kohn-Sham potential (target) :   0.4737831531E-03 (  0.1000000000E-05)
Absolute change in total energy (target)   :   0.9058747508E-01 (  0.1000000000E-03)

Time (CPU seconds) :         7.20

+--------------------+
| Loop number :   18 |
+--------------------+

Energies :
 Fermi                       :      36.5079821876    
 sum of eigenvalues          :     -5326.14856295    
 electron kinetic            :      28199.6195245    
 core electron kinetic       :      24627.7027685    
 Coulomb                     :     -49051.7729968    
 Coulomb potential           :     -32765.5882697    
 nuclear-nuclear             :     -12036.0705396    
 electron-nuclear            :     -41265.8166448    
 Hartree                     :      4250.11418758    
 Madelung                    :     -32668.9788620    
 xc potential                :     -760.179817779    
 exchange                    :     -561.609905122    
 correlation                 :     -10.5642483825    
 electron entropic           :    -0.197155978641E-04
 total energy                :     -21424.3276455    

Density of states at Fermi energy :    6.614591294    
 (states/Hartree/unit cell)

Estimated indirect band gap :   0.2308797134E-01
 from k-point     13 to k-point      2
Estimated direct band gap   :   0.9219120814    
 at k-point     15

Charges :
 core                        :    68.00000000    
 valence                     :    14.00000000    
 interstitial                :    16.07763417    
 muffin-tins (core leakage)
  species :    1 (Pb)
   atom    1                 :    65.92236583     (   36.88644819    )
 total in muffin-tins        :    65.92236583    
 total calculated charge     :    45.11425388    
 total charge                :    82.00000000    
 error                       :    36.88574612    

RMS change in Kohn-Sham potential (target) :   0.1808554743E-03 (  0.1000000000E-05)
Absolute change in total energy (target)   :   0.4054066812E-01 (  0.1000000000E-03)

Time (CPU seconds) :         7.45

+--------------------+
| Loop number :   19 |
+--------------------+

Energies :
 Fermi                       :      36.5080210823    
 sum of eigenvalues          :     -5326.14220709    
 electron kinetic            :      28199.6268238    
 core electron kinetic       :      24627.7082544    
 Coulomb                     :     -49051.7736324    
 Coulomb potential           :     -32765.5891989    
 nuclear-nuclear             :     -12036.0705396    
 electron-nuclear            :     -41265.8169867    
 Hartree                     :      4250.11389390    
 Madelung                    :     -32668.9790329    
 xc potential                :     -760.179831980    
 exchange                    :     -561.609915739    
 correlation                 :     -10.5642484251    
 electron entropic           :    -0.197158018883E-04
 total energy                :     -21424.3209925    

Density of states at Fermi energy :    6.614646406    
 (states/Hartree/unit cell)

Estimated indirect band gap :   0.2308862852E-01
 from k-point     13 to k-point      2
Estimated direct band gap   :   0.9219111527    
 at k-point     15

Charges :
 core                        :    68.00000000    
 valence                     :    14.00000000    
 interstitial                :    16.07763042    
 muffin-tins (core leakage)
  species :    1 (Pb)
   atom    1                 :    65.92236958     (   36.88644097    )
 total in muffin-tins        :    65.92236958    
 total calculated charge     :    45.11426109    
 total charge                :    82.00000000    
 error                       :    36.88573891    

RMS change in Kohn-Sham potential (target) :   0.8078498736E-04 (  0.1000000000E-05)
Absolute change in total energy (target)   :   0.1678825209E-01 (  0.1000000000E-03)

Time (CPU seconds) :         7.70

+--------------------+
| Loop number :   20 |
+--------------------+

Energies :
 Fermi                       :      36.5080319140    
 sum of eigenvalues          :     -5326.14015298    
 electron kinetic            :      28199.6288373    
 core electron kinetic       :      24627.7095157    
 Coulomb                     :     -49051.7733488    
 Coulomb potential           :     -32765.5891611    
 nuclear-nuclear             :     -12036.0705396    
 electron-nuclear            :     -41265.8164573    
 Hartree                     :      4250.11364812    
 Madelung                    :     -32668.9787682    
 xc potential                :     -760.179829247    
 exchange                    :     -561.609913693    
 correlation                 :     -10.5642484205    
 electron entropic           :    -0.197159003318E-04
 total energy                :     -21424.3186933    

Density of states at Fermi energy :    6.614672998    
 (states/Hartree/unit cell)

Estimated indirect band gap :   0.2308884155E-01
 from k-point     13 to k-point      2
Estimated direct band gap   :   0.9219110077    
 at k-point     15

Charges :
 core                        :    68.00000000    
 valence                     :    14.00000000    
 interstitial                :    16.07762951    
 muffin-tins (core leakage)
  species :    1 (Pb)
   atom    1                 :    65.92237049     (   36.88643893    )
 total in muffin-tins        :    65.92237049    
 total calculated charge     :    45.11426312    
 total charge                :    82.00000000    
 error                       :    36.88573688    

RMS change in Kohn-Sham potential (target) :   0.3820587763E-04 (  0.1000000000E-05)
Absolute change in total energy (target)   :   0.6496273621E-02 (  0.1000000000E-03)

Time (CPU seconds) :         7.95

+--------------------+
| Loop number :   21 |
+--------------------+

Energies :
 Fermi                       :      36.5080354052    
 sum of eigenvalues          :     -5326.13948708    
 electron kinetic            :      28199.6292642    
 core electron kinetic       :      24627.7096738    
 Coulomb                     :     -49051.7729563    
 Coulomb potential           :     -32765.5889277    
 nuclear-nuclear             :     -12036.0705396    
 electron-nuclear            :     -41265.8159058    
 Hartree                     :      4250.11348906    
 Madelung                    :     -32668.9784925    
 xc potential                :     -760.179823600    
 exchange                    :     -561.609909467    
 correlation                 :     -10.5642484068    
 electron entropic           :    -0.197159360470E-04
 total energy                :     -21424.3178697    

Density of states at Fermi energy :    6.614682645    
 (states/Hartree/unit cell)

Estimated indirect band gap :   0.2308890039E-01
 from k-point     13 to k-point      2
Estimated direct band gap   :   0.9219110729    
 at k-point     15

Charges :
 core                        :    68.00000000    
 valence                     :    14.00000000    
 interstitial                :    16.07762947    
 muffin-tins (core leakage)
  species :    1 (Pb)
   atom    1                 :    65.92237053     (   36.88643859    )
 total in muffin-tins        :    65.92237053    
 total calculated charge     :    45.11426346    
 total charge                :    82.00000000    
 error                       :    36.88573654    

RMS change in Kohn-Sham potential (target) :   0.1594634112E-04 (  0.1000000000E-05)
Absolute change in total energy (target)   :   0.2447625902E-02 (  0.1000000000E-03)

Time (CPU seconds) :         8.20

+--------------------+
| Loop number :   22 |
+--------------------+

Energies :
 Fermi                       :      36.5080357862    
 sum of eigenvalues          :     -5326.13929091    
 electron kinetic            :      28199.6293583    
 core electron kinetic       :      24627.7096755    
 Coulomb                     :     -49051.7727907    
 Coulomb potential           :     -32765.5888280    
 nuclear-nuclear             :     -12036.0705396    
 electron-nuclear            :     -41265.8156742    
 Hartree                     :      4250.11342306    
 Madelung                    :     -32668.9783767    
 xc potential                :     -760.179821209    
 exchange                    :     -561.609907679    
 correlation                 :     -10.5642484009    
 electron entropic           :    -0.197159467933E-04
 total energy                :     -21424.3176081    

Density of states at Fermi energy :    6.614685548    
 (states/Hartree/unit cell)

Estimated indirect band gap :   0.2308891488E-01
 from k-point     13 to k-point      2
Estimated direct band gap   :   0.9219111056    
 at k-point     15

Charges :
 core                        :    68.00000000    
 valence                     :    14.00000000    
 interstitial                :    16.07762948    
 muffin-tins (core leakage)
  species :    1 (Pb)
   atom    1                 :    65.92237052     (   36.88643851    )
 total in muffin-tins        :    65.92237052    
 total calculated charge     :    45.11426355    
 total charge                :    82.00000000    
 error                       :    36.88573645    

RMS change in Kohn-Sham potential (target) :   0.6058711421E-05 (  0.1000000000E-05)
Absolute change in total energy (target)   :   0.8734728799E-03 (  0.1000000000E-03)

Time (CPU seconds) :         8.49

+--------------------+
| Loop number :   23 |
+--------------------+

Energies :
 Fermi                       :      36.5080354092    
 sum of eigenvalues          :     -5326.13924136    
 electron kinetic            :      28199.6293873    
 core electron kinetic       :      24627.7096722    
 Coulomb                     :     -49051.7727558    
 Coulomb potential           :     -32765.5888080    
 nuclear-nuclear             :     -12036.0705396    
 electron-nuclear            :     -41265.8156245    
 Hartree                     :      4250.11340829    
 Madelung                    :     -32668.9783518    
 xc potential                :     -760.179820668    
 exchange                    :     -561.609907274    
 correlation                 :     -10.5642483995    
 electron entropic           :    -0.197159497650E-04
 total energy                :     -21424.3175439    

Density of states at Fermi energy :    6.614686351    
 (states/Hartree/unit cell)

Estimated indirect band gap :   0.2308891760E-01
 from k-point     13 to k-point      2
Estimated direct band gap   :   0.9219111095    
 at k-point     15

Charges :
 core                        :    68.00000000    
 valence                     :    14.00000000    
 interstitial                :    16.07762947    
 muffin-tins (core leakage)
  species :    1 (Pb)
   atom    1                 :    65.92237053     (   36.88643845    )
 total in muffin-tins        :    65.92237053    
 total calculated charge     :    45.11426360    
 total charge                :    82.00000000    
 error                       :    36.88573640    

RMS change in Kohn-Sham potential (target) :   0.2183875554E-05 (  0.1000000000E-05)
Absolute change in total energy (target)   :   0.2825540651E-03 (  0.1000000000E-03)

Time (CPU seconds) :         8.74

+--------------------+
| Loop number :   24 |
+--------------------+

Energies :
 Fermi                       :      36.5080351137    
 sum of eigenvalues          :     -5326.13923003    
 electron kinetic            :      28199.6293976    
 core electron kinetic       :      24627.7096717    
 Coulomb                     :     -49051.7727499    
 Coulomb potential           :     -32765.5888071    
 nuclear-nuclear             :     -12036.0705396    
 electron-nuclear            :     -41265.8156135    
 Hartree                     :      4250.11340322    
 Madelung                    :     -32668.9783463    
 xc potential                :     -760.179820604    
 exchange                    :     -561.609907226    
 correlation                 :     -10.5642483994    
 electron entropic           :    -0.197159506350E-04
 total energy                :     -21424.3175276    

Density of states at Fermi energy :    6.614686586    
 (states/Hartree/unit cell)

Estimated indirect band gap :   0.2308891741E-01
 from k-point     13 to k-point      2
Estimated direct band gap   :   0.9219111073    
 at k-point     15

Charges :
 core                        :    68.00000000    
 valence                     :    14.00000000    
 interstitial                :    16.07762946    
 muffin-tins (core leakage)
  species :    1 (Pb)
   atom    1                 :    65.92237054     (   36.88643843    )
 total in muffin-tins        :    65.92237054    
 total calculated charge     :    45.11426363    
 total charge                :    82.00000000    
 error                       :    36.88573637    

RMS change in Kohn-Sham potential (target) :   0.7453590735E-06 (  0.1000000000E-05)
Absolute change in total energy (target)   :   0.8702522246E-04 (  0.1000000000E-03)

Convergence targets achieved

Time (CPU seconds) :         8.98

+--------------------+
| Loop number :   25 |
+--------------------+

Energies :
 Fermi                       :      36.5080349831    
 sum of eigenvalues          :     -5326.13922784    
 electron kinetic            :      28199.6294004    
 core electron kinetic       :      24627.7096712    
 Coulomb                     :     -49051.7727501    
 Coulomb potential           :     -32765.5888076    
 nuclear-nuclear             :     -12036.0705396    
 electron-nuclear            :     -41265.8156135    
 Hartree                     :      4250.11340293    
 Madelung                    :     -32668.9783463    
 xc potential                :     -760.179820600    
 exchange                    :     -561.609907223    
 correlation                 :     -10.5642483994    
 electron entropic           :    -0.197159510679E-04
 total energy                :     -21424.3175251    

Density of states at Fermi energy :    6.614686703    
 (states/Hartree/unit cell)

Estimated indirect band gap :   0.2308891692E-01
 from k-point     13 to k-point      2
Estimated direct band gap   :   0.9219111060    
 at k-point     15

Charges :
 core                        :    68.00000000    
 valence                     :    14.00000000    
 interstitial                :    16.07762946    
 muffin-tins (core leakage)
  species :    1 (Pb)
   atom    1                 :    65.92237054     (   36.88643842    )
 total in muffin-tins        :    65.92237054    
 total calculated charge     :    45.11426364    
 total charge                :    82.00000000    
 error                       :    36.88573636    

+------------------------------+
| Self-consistent loop stopped |
+------------------------------+

Wrote STATE.OUT

Timings (CPU seconds) :
 initialisation                        :         2.91
 Hamiltonian and overlap matrix set up :         1.53
 first-variational eigenvalue equation :         1.07
 charge density calculation            :         2.93
 potential calculation                 :         0.78
 total                                 :         9.23

+----------------------------+
| Elk version 4.0.15 stopped |
+----------------------------+
