+----------------------------+
| Elk version 4.0.15 started |
+----------------------------+

Date (YYYY-MM-DD) : 2019-02-01
Time (hh:mm:ss)   : 01:47:48

All units are atomic (Hartree, Bohr, etc.)

+-------------------------------------------------+
| Ground-state run starting from atomic densities |
+-------------------------------------------------+

Lattice vectors :
   0.000000000       5.250000000       5.250000000    
   5.250000000       0.000000000       5.250000000    
   5.250000000       5.250000000       0.000000000    

Reciprocal lattice vectors :
 -0.5983986007      0.5983986007      0.5983986007    
  0.5983986007     -0.5983986007      0.5983986007    
  0.5983986007      0.5983986007     -0.5983986007    

Unit cell volume      :    289.4062500    
Brillouin zone volume :   0.8571004028    

Species :    1 (Pb)
 parameters loaded from : Pb.in
 name : lead
 nuclear charge    :   -82.00000000    
 electronic charge :    82.00000000    
 atomic mass :    377702.4940    
 muffin-tin radius :    2.800000000    
 number of radial points in muffin-tin :    697
 number on inner part of muffin-tin    :    501
 atomic positions (lattice), magnetic fields (Cartesian) :
   1 :   0.00000000  0.00000000  0.00000000    0.00000000  0.00000000  0.00000000

Total number of atoms per unit cell :    1

Spin treatment :
 spin-polarised
 spin-orbit coupling
 global magnetic field (Cartesian) :    0.000000000       0.000000000       0.000000000    
 non-collinear magnetisation

Number of Bravais lattice symmetries :   48
Number of crystal symmetries         :   48
Crystal has inversion symmetry
Real symmetric eigensolver will be used

k-point grid :      8     8     8
k-point offset :    0.000000000       0.000000000       0.000000000    
k-point set is reduced with full crystal symmetry group
Total number of k-points :       29

Muffin-tin radius times maximum |G+k| :    8.000000000    
 using average radius
Maximum |G+k| for APW functions       :    2.857142857    
Maximum (1/2)|G+k|^2                  :    4.081632653    
Maximum |G| for potential and density :    12.00000000    
Constant for pseudocharge density :    8
Radial integration step length :    4

G-vector grid sizes :     30    30    30
Number of G-vectors :     8393

Maximum angular momentum used for
 APW functions                      :    8
 H and O matrix elements outer loop :    7
 outer part of muffin-tin           :    7
 inner part of muffin-tin           :    3

Total nuclear charge    :   -82.00000000    
Total core charge       :    68.00000000    
Total valence charge    :    14.00000000    
Total excess charge     :    0.000000000    
Total electronic charge :    82.00000000    

Effective Wigner radius, r_s :   0.9444996792    

Number of empty states         :    8
Total number of valence states :   32
Total number of core states    :   68

Total number of local-orbitals :   15

Exchange-correlation functional :      3     0     0
 Perdew-Wang/Ceperley-Alder, Phys. Rev. B 45, 13244 (1992)
 Local density approximation (LDA)

Smearing type :    3
 Fermi-Dirac
Smearing width :   0.1000000000E-02
Effective electronic temperature (K) :    315.7750425    

Mixing type :    1
 Adaptive linear mixing

Density and potential initialised from atomic data

+------------------------------+
| Self-consistent loop started |
+------------------------------+

+--------------------+
| Loop number :    1 |
+--------------------+

Energies :
 Fermi                       :     0.209916346892E-01
 sum of eigenvalues          :     -12952.2114381    
 electron kinetic            :      24345.1319236    
 core electron kinetic       :      24218.7606844    
 Coulomb                     :     -44886.7612580    
 Coulomb potential           :     -36794.3381684    
 nuclear-nuclear             :     -1260.92920359    
 electron-nuclear            :     -50457.3259405    
 Hartree                     :      6831.49388605    
 Madelung                    :     -26489.5921738    
 xc potential                :     -503.005193351    
 xc effective B-field        :    -0.166014370302E-11
 external B-field            :      0.00000000000    
 exchange                    :     -370.230764236    
 correlation                 :     -8.61464093892    
 electron entropic           :    -0.178836266115E-03
 total energy                :     -20920.4749184    
 (external B-field energy excluded from total)

Density of states at Fermi energy :    62.41809483    
 (states/Hartree/unit cell)

Estimated indirect band gap :   0.1037383490E-01
 from k-point     26 to k-point     16
Estimated direct band gap   :   0.3816668966E-01
 at k-point     29

Charges :
 core                        :    68.00000000    
 valence                     :    14.00000000    
 interstitial                :    1.848963504    
 muffin-tins (core leakage)
  species :    1 (Pb)
   atom    1                 :    80.15103650     (  0.1214339954E-02)
 total in muffin-tins        :    80.15103650    
 total calculated charge     :    81.99907893    
 total charge                :    82.00000000    
 error                       :   0.9210716652E-03

Moments :
 interstitial                :  -0.6595976763E-27  0.1800303793E-27 -0.9714285151E-28
 muffin-tins
  species :    1 (Pb)
   atom    1                 :  -0.1686866499E-23  0.2526141616E-23  0.1322312015E-24
 total in muffin-tins        :  -0.1686866499E-23  0.2526141616E-23  0.1322312015E-24
 total moment                :  -0.1687526097E-23  0.2526321647E-23  0.1321340586E-24

Time (CPU seconds) :         8.00

+--------------------+
| Loop number :    2 |
+--------------------+

Energies :
 Fermi                       :     0.293370847847E-01
 sum of eigenvalues          :     -12951.9041688    
 electron kinetic            :      24345.2215684    
 core electron kinetic       :      24218.7984243    
 Coulomb                     :     -44887.1062095    
 Coulomb potential           :     -36794.1016211    
 nuclear-nuclear             :     -1260.92920359    
 electron-nuclear            :     -50458.2523907    
 Hartree                     :      6832.07538482    
 Madelung                    :     -26490.0553990    
 xc potential                :     -503.024116069    
 xc effective B-field        :    -0.166445713545E-11
 external B-field            :      0.00000000000    
 exchange                    :     -370.244692660    
 correlation                 :     -8.61497717405    
 electron entropic           :    -0.176546964669E-03
 total energy                :     -20920.7444875    
 (external B-field energy excluded from total)

Density of states at Fermi energy :    61.43549524    
 (states/Hartree/unit cell)

Estimated indirect band gap :   0.1032355377E-01
 from k-point     26 to k-point     16
Estimated direct band gap   :   0.3818430449E-01
 at k-point     29

Charges :
 core                        :    68.00000000    
 valence                     :    14.00000000    
 interstitial                :    1.844169044    
 muffin-tins (core leakage)
  species :    1 (Pb)
   atom    1                 :    80.15583096     (  0.1207048719E-02)
 total in muffin-tins        :    80.15583096    
 total calculated charge     :    81.99909381    
 total charge                :    82.00000000    
 error                       :   0.9061902265E-03

Moments :
 interstitial                :   0.7568159161E-27 -0.8819131713E-26  0.3557902597E-26
 muffin-tins
  species :    1 (Pb)
   atom    1                 :  -0.2104070280E-23  0.8829461156E-24 -0.1211485294E-24
 total in muffin-tins        :  -0.2104070280E-23  0.8829461156E-24 -0.1211485294E-24
 total moment                :  -0.2103313464E-23  0.8741269839E-24 -0.1175906268E-24

RMS change in Kohn-Sham potential (target) :   0.1737696972     (  0.1000000000E-05)
Absolute change in total energy (target)   :   0.2695690803     (  0.1000000000E-03)

Time (CPU seconds) :        12.47

+--------------------+
| Loop number :    3 |
+--------------------+

Energies :
 Fermi                       :     0.406905355153E-01
 sum of eigenvalues          :     -12951.4028765    
 electron kinetic            :      24345.4632759    
 core electron kinetic       :      24218.8313345    
 Coulomb                     :     -44887.4863686    
 Coulomb potential           :     -36793.8207706    
 nuclear-nuclear             :     -1260.92920359    
 electron-nuclear            :     -50459.2935594    
 Hartree                     :      6832.73639441    
 Madelung                    :     -26490.5759833    
 xc potential                :     -503.045381812    
 xc effective B-field        :    -0.166823613505E-11
 external B-field            :     -0.00000000000    
 exchange                    :     -370.260337524    
 correlation                 :     -8.61536529612    
 electron entropic           :    -0.173094171452E-03
 total energy                :     -20920.8989686    
 (external B-field energy excluded from total)

Density of states at Fermi energy :    59.99800214    
 (states/Hartree/unit cell)

Estimated indirect band gap :   0.1026208251E-01
 from k-point     26 to k-point     16
Estimated direct band gap   :   0.3820759690E-01
 at k-point     29

Charges :
 core                        :    68.00000000    
 valence                     :    14.00000000    
 interstitial                :    1.838400234    
 muffin-tins (core leakage)
  species :    1 (Pb)
   atom    1                 :    80.16159977     (  0.1198328125E-02)
 total in muffin-tins        :    80.16159977    
 total calculated charge     :    81.99911306    
 total charge                :    82.00000000    
 error                       :   0.8869421143E-03

Moments :
 interstitial                :  -0.1861394389E-25 -0.2057890136E-25  0.1444183949E-26
 muffin-tins
  species :    1 (Pb)
   atom    1                 :  -0.3821141091E-24 -0.5665206181E-23 -0.1955126676E-24
 total in muffin-tins        :  -0.3821141091E-24 -0.5665206181E-23 -0.1955126676E-24
 total moment                :  -0.4007280530E-24 -0.5685785083E-23 -0.1940684837E-24

RMS change in Kohn-Sham potential (target) :   0.1482120397     (  0.1000000000E-05)
Absolute change in total energy (target)   :   0.2218734158     (  0.1000000000E-03)

Time (CPU seconds) :        17.18

+--------------------+
| Loop number :    4 |
+--------------------+

Energies :
 Fermi                       :     0.536976573582E-01
 sum of eigenvalues          :     -12950.7036268    
 electron kinetic            :      24345.9206973    
 core electron kinetic       :      24218.8501891    
 Coulomb                     :     -44887.7910832    
 Coulomb potential           :     -36793.5612053    
 nuclear-nuclear             :     -1260.92920359    
 electron-nuclear            :     -50460.1625540    
 Hartree                     :      6833.30067431    
 Madelung                    :     -26491.0104806    
 xc potential                :     -503.063118806    
 xc effective B-field        :    -0.166918225604E-11
 external B-field            :      0.00000000000    
 exchange                    :     -370.273372327    
 correlation                 :     -8.61570656426    
 electron entropic           :    -0.169232522827E-03
 total energy                :     -20920.7596340    
 (external B-field energy excluded from total)

Density of states at Fermi energy :    58.44884836    
 (states/Hartree/unit cell)

Estimated indirect band gap :   0.1002877426E-01
 from k-point     26 to k-point      3
Estimated direct band gap   :   0.3823325538E-01
 at k-point     29

Charges :
 core                        :    68.00000000    
 valence                     :    14.00000000    
 interstitial                :    1.832931785    
 muffin-tins (core leakage)
  species :    1 (Pb)
   atom    1                 :    80.16706821     (  0.1190116589E-02)
 total in muffin-tins        :    80.16706821    
 total calculated charge     :    81.99913368    
 total charge                :    82.00000000    
 error                       :   0.8663248313E-03

Moments :
 interstitial                :  -0.1783720178E-25  0.8955144932E-26 -0.7135039694E-26
 muffin-tins
  species :    1 (Pb)
   atom    1                 :   0.1956032812E-24  0.4688534107E-23 -0.6996645000E-25
 total in muffin-tins        :   0.1956032812E-24  0.4688534107E-23 -0.6996645000E-25
 total moment                :   0.1777660794E-24  0.4697489251E-23 -0.7710148970E-25

RMS change in Kohn-Sham potential (target) :   0.1192596981     (  0.1000000000E-05)
Absolute change in total energy (target)   :   0.8386626151E-01 (  0.1000000000E-03)

Time (CPU seconds) :        21.97

+--------------------+
| Loop number :    5 |
+--------------------+

Energies :
 Fermi                       :     0.668749391364E-01
 sum of eigenvalues          :     -12949.8644134    
 electron kinetic            :      24346.5764744    
 core electron kinetic       :      24218.8828165    
 Coulomb                     :     -44887.9673415    
 Coulomb potential           :     -36793.3666515    
 nuclear-nuclear             :     -1260.92920359    
 electron-nuclear            :     -50460.7096243    
 Hartree                     :      6833.67148642    
 Madelung                    :     -26491.2840157    
 xc potential                :     -503.074236339    
 xc effective B-field        :    -0.166616542979E-11
 external B-field            :      0.00000000000    
 exchange                    :     -370.281524572    
 correlation                 :     -8.61594294344    
 electron entropic           :    -0.165860903579E-03
 total energy                :     -20920.2885004    
 (external B-field energy excluded from total)

Density of states at Fermi energy :    57.14545679    
 (states/Hartree/unit cell)

Estimated indirect band gap :   0.9836131308E-02
 from k-point     26 to k-point      3
Estimated direct band gap   :   0.3825793994E-01
 at k-point     29

Charges :
 core                        :    68.00000000    
 valence                     :    14.00000000    
 interstitial                :    1.828637394    
 muffin-tins (core leakage)
  species :    1 (Pb)
   atom    1                 :    80.17136261     (  0.1183683249E-02)
 total in muffin-tins        :    80.17136261    
 total calculated charge     :    81.99915305    
 total charge                :    82.00000000    
 error                       :   0.8469498837E-03

Moments :
 interstitial                :   0.4001105063E-26  0.4108743172E-25 -0.1081652093E-25
 muffin-tins
  species :    1 (Pb)
   atom    1                 :   0.1136830896E-23 -0.6560112016E-24  0.8167169716E-25
 total in muffin-tins        :   0.1136830896E-23 -0.6560112016E-24  0.8167169716E-25
 total moment                :   0.1140832001E-23 -0.6149237699E-24  0.7085517623E-25

RMS change in Kohn-Sham potential (target) :   0.9021746718E-01 (  0.1000000000E-05)
Absolute change in total energy (target)   :   0.4921001527     (  0.1000000000E-03)

Time (CPU seconds) :        26.62

+--------------------+
| Loop number :    6 |
+--------------------+

Energies :
 Fermi                       :     0.789057751282E-01
 sum of eigenvalues          :     -12948.9986976    
 electron kinetic            :      24347.3274909    
 core electron kinetic       :      24218.9601253    
 Coulomb                     :     -44888.0334258    
 Coulomb potential           :     -36793.2469425    
 nuclear-nuclear             :     -1260.92920359    
 electron-nuclear            :     -50460.9615019    
 Hartree                     :      6833.85727969    
 Madelung                    :     -26491.4099545    
 xc potential                :     -503.079246046    
 xc effective B-field        :    -0.165976605892E-11
 external B-field            :      0.00000000000    
 exchange                    :     -370.285179607    
 correlation                 :     -8.61607256225    
 electron entropic           :    -0.163434914519E-03
 total energy                :     -20919.6073505    
 (external B-field energy excluded from total)

Density of states at Fermi energy :    56.23603827    
 (states/Hartree/unit cell)

Estimated indirect band gap :   0.9701082627E-02
 from k-point     26 to k-point      3
Estimated direct band gap   :   0.3827895261E-01
 at k-point     29

Charges :
 core                        :    68.00000000    
 valence                     :    14.00000000    
 interstitial                :    1.825766678    
 muffin-tins (core leakage)
  species :    1 (Pb)
   atom    1                 :    80.17423332     (  0.1179316895E-02)
 total in muffin-tins        :    80.17423332    
 total calculated charge     :    81.99916949    
 total charge                :    82.00000000    
 error                       :   0.8305083899E-03

Moments :
 interstitial                :  -0.7974705425E-26  0.1267042803E-25 -0.3449312376E-26
 muffin-tins
  species :    1 (Pb)
   atom    1                 :  -0.1166007477E-24 -0.4822699175E-23  0.1069507401E-23
 total in muffin-tins        :  -0.1166007477E-24 -0.4822699175E-23  0.1069507401E-23
 total moment                :  -0.1245754532E-24 -0.4810028747E-23  0.1066058089E-23

RMS change in Kohn-Sham potential (target) :   0.6389437554E-01 (  0.1000000000E-05)
Absolute change in total energy (target)   :   0.8041750231     (  0.1000000000E-03)

Time (CPU seconds) :        31.28

+--------------------+
| Loop number :    7 |
+--------------------+
