+----------------------------+
| Elk version 4.0.15 started |
+----------------------------+

Date (YYYY-MM-DD) : 2018-11-30
Time (hh:mm:ss)   : 09:18:04

All units are atomic (Hartree, Bohr, etc.)

+-------------------------------------------------+
| Ground-state run starting from atomic densities |
+-------------------------------------------------+

Lattice vectors :
   0.000000000      0.5000000000      0.5000000000    
  0.5000000000       0.000000000      0.5000000000    
  0.5000000000      0.5000000000       0.000000000    

Reciprocal lattice vectors :
  -6.283185307       6.283185307       6.283185307    
   6.283185307      -6.283185307       6.283185307    
   6.283185307       6.283185307      -6.283185307    

Unit cell volume      :   0.2500000000    
Brillouin zone volume :    992.2008538    

Species :    1 (Pb)
 parameters loaded from : Pb.in
 name : lead
 nuclear charge    :   -82.00000000    
 electronic charge :    82.00000000    
 atomic mass :    377702.4940    
 muffin-tin radius :   0.3285533906    
 number of radial points in muffin-tin :    697
 number on inner part of muffin-tin    :    469
 atomic positions (lattice), magnetic fields (Cartesian) :
   1 :   0.00000000  0.00000000  0.00000000    0.00000000  0.00000000  0.00000000

Total number of atoms per unit cell :    1

Spin treatment :
 spin-unpolarised

Number of Bravais lattice symmetries :   48
Number of crystal symmetries         :   48
Crystal has inversion symmetry
Real symmetric eigensolver will be used

k-point grid :     11    11    11
k-point offset :    0.000000000       0.000000000       0.000000000    
k-point set is reduced with full crystal symmetry group
Total number of k-points :       56

Muffin-tin radius times maximum |G+k| :    8.000000000    
 using average radius
Maximum |G+k| for APW functions       :    24.34916281    
Maximum (1/2)|G+k|^2                  :    296.4408648    
Maximum |G| for potential and density :    48.69832662    
Constant for pseudocharge density :    4
Radial integration step length :    4

G-vector grid sizes :     12    12    12
Number of G-vectors :      531

Maximum angular momentum used for
 APW functions                      :    8
 H and O matrix elements outer loop :    7
 outer part of muffin-tin           :    7
 inner part of muffin-tin           :    3

Total nuclear charge    :   -82.00000000    
Total core charge       :    68.00000000    
Total valence charge    :    14.00000000    
Total excess charge     :    0.000000000    
Total electronic charge :    82.00000000    

Effective Wigner radius, r_s :   0.8995235040E-01

Number of empty states         :    4
Total number of valence states :   12
Total number of core states    :   68

Total number of local-orbitals :   15

Exchange-correlation functional :      3     0     0
 Perdew-Wang/Ceperley-Alder, Phys. Rev. B 45, 13244 (1992)
 Local density approximation (LDA)

Smearing type :    3
 Fermi-Dirac
Smearing width :   0.1000000000E-02
Effective electronic temperature (K) :    315.7750425    

Mixing type :    1
 Adaptive linear mixing

Density and potential initialised from atomic data

+------------------------------+
| Self-consistent loop started |
+------------------------------+

+--------------------+
| Loop number :    1 |
+--------------------+

Energies :
 Fermi                       :      23.9666442775    
 sum of eigenvalues          :     -5862.39263790    
 electron kinetic            :      28451.9503066    
 core electron kinetic       :      25280.8764727    
 Coulomb                     :     -50059.8431581    
 Coulomb potential           :     -33537.9270848    
 nuclear-nuclear             :     -12036.0705396    
 electron-nuclear            :     -42509.6181522    
 Hartree                     :      4485.84553366    
 Madelung                    :     -33290.8796156    
 xc potential                :     -776.415859690    
 exchange                    :     -573.755515466    
 correlation                 :     -10.6057034936    
 electron entropic           :    -0.350251307865E-04
 total energy                :     -22192.2541054    

Density of states at Fermi energy :    11.48778156    
 (states/Hartree/unit cell)

Estimated indirect band gap :   0.4755176427E-02
 from k-point      1 to k-point      3
Estimated direct band gap   :   0.2005311422    
 at k-point     29

Charges :
 core                        :    68.00000000    
 valence                     :    14.00000000    
 interstitial                :    14.94361836    
 muffin-tins (core leakage)
  species :    1 (Pb)
   atom    1                 :    67.05638164     (   35.23148177    )
 total in muffin-tins        :    67.05638164    
 total calculated charge     :    46.76942077    
 total charge                :    82.00000000    
 error                       :    35.23057923    

Time (CPU seconds) :         3.43

+--------------------+
| Loop number :    2 |
+--------------------+

Energies :
 Fermi                       :      25.7225539160    
 sum of eigenvalues          :     -5787.08250879    
 electron kinetic            :      28417.0636755    
 core electron kinetic       :      25153.9757719    
 Coulomb                     :     -49919.8276367    
 Coulomb potential           :     -33429.9794698    
 nuclear-nuclear             :     -12036.0705396    
 electron-nuclear            :     -42337.5347245    
 Hartree                     :      4453.77762739    
 Madelung                    :     -33204.8379018    
 xc potential                :     -774.166714555    
 exchange                    :     -572.072941198    
 correlation                 :     -10.6000507980    
 electron entropic           :    -0.226477709589E-04
 total energy                :     -22085.4369758    

Density of states at Fermi energy :    6.936713182    
 (states/Hartree/unit cell)

Estimated indirect band gap :   0.2886328469E-02
 from k-point      1 to k-point     46
Estimated direct band gap   :   0.2169475710    
 at k-point     29

Charges :
 core                        :    68.00000000    
 valence                     :    14.00000000    
 interstitial                :    15.09093070    
 muffin-tins (core leakage)
  species :    1 (Pb)
   atom    1                 :    66.90906930     (   35.47160061    )
 total in muffin-tins        :    66.90906930    
 total calculated charge     :    46.52927410    
 total charge                :    82.00000000    
 error                       :    35.47072590    

RMS change in Kohn-Sham potential (target) :    20.41014375     (  0.1000000000E-05)
Absolute change in total energy (target)   :    106.8171296     (  0.1000000000E-03)

Time (CPU seconds) :         3.90

+--------------------+
| Loop number :    3 |
+--------------------+

Energies :
 Fermi                       :      27.9640257030    
 sum of eigenvalues          :     -5690.72408355    
 electron kinetic            :      28368.3796641    
 core electron kinetic       :      25011.8208066    
 Coulomb                     :     -49735.1378418    
 Coulomb potential           :     -33287.8920073    
 nuclear-nuclear             :     -12036.0705396    
 electron-nuclear            :     -42110.2425972    
 Hartree                     :      4411.17529495    
 Madelung                    :     -33091.1918382    
 xc potential                :     -771.211740336    
 exchange                    :     -569.862357781    
 correlation                 :     -10.5926000212    
 electron entropic           :    -0.853563087359E-05
 total energy                :     -21947.2131441    

Density of states at Fermi energy :    2.520370677    
 (states/Hartree/unit cell)

Estimated indirect band gap :   0.1101759455E-01
 from k-point      3 to k-point      1
Estimated direct band gap   :   0.2403483519    
 at k-point     29

Charges :
 core                        :    68.00000000    
 valence                     :    14.00000000    
 interstitial                :    15.28454320    
 muffin-tins (core leakage)
  species :    1 (Pb)
   atom    1                 :    66.71545680     (   35.77422426    )
 total in muffin-tins        :    66.71545680    
 total calculated charge     :    46.22661429    
 total charge                :    82.00000000    
 error                       :    35.77338571    

RMS change in Kohn-Sham potential (target) :    15.81272721     (  0.1000000000E-05)
Absolute change in total energy (target)   :    164.9281142     (  0.1000000000E-03)

Time (CPU seconds) :         4.37

+--------------------+
| Loop number :    4 |
+--------------------+

Energies :
 Fermi                       :      30.3077981906    
 sum of eigenvalues          :     -5590.10948767    
 electron kinetic            :      28313.6419971    
 core electron kinetic       :      24877.4590396    
 Coulomb                     :     -49536.8265128    
 Coulomb potential           :     -33135.7019701    
 nuclear-nuclear             :     -12036.0705396    
 electron-nuclear            :     -41865.8099765    
 Hartree                     :      4365.05400320    
 Madelung                    :     -32968.9755278    
 xc potential                :     -768.049514661    
 exchange                    :     -567.496760576    
 correlation                 :     -10.5845882448    
 electron entropic           :    -0.850035415757E-05
 total energy                :     -21801.2658731    

Density of states at Fermi energy :    2.513564490    
 (states/Hartree/unit cell)

Estimated indirect band gap :   0.2470376194E-01
 from k-point      3 to k-point     29
Estimated direct band gap   :   0.2689713821    
 at k-point     29

Charges :
 core                        :    68.00000000    
 valence                     :    14.00000000    
 interstitial                :    15.49403717    
 muffin-tins (core leakage)
  species :    1 (Pb)
   atom    1                 :    66.50596283     (   36.08620445    )
 total in muffin-tins        :    66.50596283    
 total calculated charge     :    45.91459204    
 total charge                :    82.00000000    
 error                       :    36.08540796    

RMS change in Kohn-Sham potential (target) :    10.99587952     (  0.1000000000E-05)
Absolute change in total energy (target)   :    187.1792995     (  0.1000000000E-03)

Time (CPU seconds) :         4.83

+--------------------+
| Loop number :    5 |
+--------------------+

Energies :
 Fermi                       :      32.4097763871    
 sum of eigenvalues          :     -5500.26192108    
 electron kinetic            :      28262.9168918    
 core electron kinetic       :      24768.6046428    
 Coulomb                     :     -49356.9751841    
 Coulomb potential           :     -32997.9943943    
 nuclear-nuclear             :     -12036.0705396    
 electron-nuclear            :     -41643.8148949    
 Hartree                     :      4322.91025030    
 Madelung                    :     -32857.9779870    
 xc potential                :     -765.184418643    
 exchange                    :     -565.353473816    
 correlation                 :     -10.5772843370    
 electron entropic           :    -0.847241197709E-05
 total energy                :     -21669.9890589    

Density of states at Fermi energy :    2.507876650    
 (states/Hartree/unit cell)

Estimated indirect band gap :   0.1371574981E-01
 from k-point      3 to k-point     29
Estimated direct band gap   :   0.2991797574    
 at k-point     29

Charges :
 core                        :    68.00000000    
 valence                     :    14.00000000    
 interstitial                :    15.68860509    
 muffin-tins (core leakage)
  species :    1 (Pb)
   atom    1                 :    66.31139491     (   36.36276973    )
 total in muffin-tins        :    66.31139491    
 total calculated charge     :    45.63798588    
 total charge                :    82.00000000    
 error                       :    36.36201412    

RMS change in Kohn-Sham potential (target) :    6.742031207     (  0.1000000000E-05)
Absolute change in total energy (target)   :    178.0716390     (  0.1000000000E-03)

Time (CPU seconds) :         5.30

+--------------------+
| Loop number :    6 |
+--------------------+

Energies :
 Fermi                       :      34.0556015952    
 sum of eigenvalues          :     -5430.46962728    
 electron kinetic            :      28224.6503325    
 core electron kinetic       :      24693.4783676    
 Coulomb                     :     -49218.4608116    
 Coulomb potential           :     -32892.1506540    
 nuclear-nuclear             :     -12036.0705396    
 electron-nuclear            :     -41472.6298900    
 Hartree                     :      4290.23961803    
 Madelung                    :     -32772.3854846    
 xc potential                :     -762.969305773    
 exchange                    :     -563.696450705    
 correlation                 :     -10.5715948843    
 electron entropic           :    -0.147346332613E-04
 total energy                :     -21568.0785394    

Density of states at Fermi energy :    4.139518068    
 (states/Hartree/unit cell)

Estimated indirect band gap :   0.4567986177E-02
 from k-point      3 to k-point     29
Estimated direct band gap   :   0.3262299660    
 at k-point     29

Charges :
 core                        :    68.00000000    
 valence                     :    14.00000000    
 interstitial                :    15.84514589    
 muffin-tins (core leakage)
  species :    1 (Pb)
   atom    1                 :    66.15485411     (   36.57698381    )
 total in muffin-tins        :    66.15485411    
 total calculated charge     :    45.42373848    
 total charge                :    82.00000000    
 error                       :    36.57626152    

RMS change in Kohn-Sham potential (target) :    3.557495078     (  0.1000000000E-05)
Absolute change in total energy (target)   :    146.4284293     (  0.1000000000E-03)

Time (CPU seconds) :         5.75

+--------------------+
| Loop number :    7 |
+--------------------+

Energies :
 Fermi                       :      35.1864918318    
 sum of eigenvalues          :     -5383.00215087    
 electron kinetic            :      28202.1561042    
 core electron kinetic       :      24650.3545000    
 Coulomb                     :     -49128.6085210    
 Coulomb potential           :     -32823.6439173    
 nuclear-nuclear             :     -12036.0705396    
 electron-nuclear            :     -41361.4320456    
 Hartree                     :      4268.89406413    
 Madelung                    :     -32716.7865624    
 xc potential                :     -761.514337732    
 exchange                    :     -562.608084263    
 correlation                 :     -10.5678212624    
 electron entropic           :    -0.364440722635E-04
 total energy                :     -21499.6283588    

Density of states at Fermi energy :    12.62914434    
 (states/Hartree/unit cell)

Estimated indirect band gap :   0.6684320768E-02
 from k-point      2 to k-point     29
Estimated direct band gap   :   0.3464261497    
 at k-point     29

Charges :
 core                        :    68.00000000    
 valence                     :    14.00000000    
 interstitial                :    15.95425995    
 muffin-tins (core leakage)
  species :    1 (Pb)
   atom    1                 :    66.04574005     (   36.72214339    )
 total in muffin-tins        :    66.04574005    
 total calculated charge     :    45.27856117    
 total charge                :    82.00000000    
 error                       :    36.72143883    

RMS change in Kohn-Sham potential (target) :    1.557889027     (  0.1000000000E-05)
Absolute change in total energy (target)   :    105.0572879     (  0.1000000000E-03)

Time (CPU seconds) :         6.20

+--------------------+
| Loop number :    8 |
+--------------------+

Energies :
 Fermi                       :      35.8739939932    
 sum of eigenvalues          :     -5354.60226749    
 electron kinetic            :      28193.0164596    
 core electron kinetic       :      24630.8550583    
 Coulomb                     :     -49080.3133930    
 Coulomb potential           :     -32786.9068667    
 nuclear-nuclear             :     -12036.0705396    
 electron-nuclear            :     -41301.5788401    
 Hartree                     :      4257.33598670    
 Madelung                    :     -32686.8599596    
 xc potential                :     -760.711860376    
 exchange                    :     -562.007824833    
 correlation                 :     -10.5657116739    
 electron entropic           :    -0.365143408105E-04
 total energy                :     -21459.8705064    

Density of states at Fermi energy :    11.88286498    
 (states/Hartree/unit cell)

Estimated indirect band gap :   0.3571565124E-02
 from k-point      2 to k-point      3
Estimated direct band gap   :   0.5651146010    
 at k-point     44

Charges :
 core                        :    68.00000000    
 valence                     :    14.00000000    
 interstitial                :    16.01979970    
 muffin-tins (core leakage)
  species :    1 (Pb)
   atom    1                 :    65.98020030     (   36.80791671    )
 total in muffin-tins        :    65.98020030    
 total calculated charge     :    45.19278019    
 total charge                :    82.00000000    
 error                       :    36.80721981    

RMS change in Kohn-Sham potential (target) :   0.5323047690     (  0.1000000000E-05)
Absolute change in total energy (target)   :    66.02217438     (  0.1000000000E-03)

Time (CPU seconds) :         6.77

+--------------------+
| Loop number :    9 |
+--------------------+

Energies :
 Fermi                       :      36.2475343225    
 sum of eigenvalues          :     -5339.48996038    
 electron kinetic            :      28191.9352890    
 core electron kinetic       :      24624.9442271    
 Coulomb                     :     -49059.4744287    
 Coulomb potential           :     -32771.0776867    
 nuclear-nuclear             :     -12036.0705396    
 electron-nuclear            :     -41275.7300916    
 Hartree                     :      4252.32620246    
 Madelung                    :     -32673.9355854    
 xc potential                :     -760.347562665    
 exchange                    :     -561.735343263    
 correlation                 :     -10.5647331524    
 electron entropic           :    -0.232490146577E-04
 total energy                :     -21439.8392394    

Density of states at Fermi energy :    7.209712522    
 (states/Hartree/unit cell)

Estimated indirect band gap :   0.4706297008E-02
 from k-point     29 to k-point      2
Estimated direct band gap   :   0.5709192124    
 at k-point     44

Charges :
 core                        :    68.00000000    
 valence                     :    14.00000000    
 interstitial                :    16.05370285    
 muffin-tins (core leakage)
  species :    1 (Pb)
   atom    1                 :    65.94629715     (   36.85203893    )
 total in muffin-tins        :    65.94629715    
 total calculated charge     :    45.14865540    
 total charge                :    82.00000000    
 error                       :    36.85134460    

RMS change in Kohn-Sham potential (target) :   0.1330246346     (  0.1000000000E-05)
Absolute change in total energy (target)   :    36.53681060     (  0.1000000000E-03)

Time (CPU seconds) :         7.25

+--------------------+
| Loop number :   10 |
+--------------------+

Energies :
 Fermi                       :      36.4301269843    
 sum of eigenvalues          :     -5332.15314511    
 electron kinetic            :      28194.0715942    
 core electron kinetic       :      24624.7736231    
 Coulomb                     :     -49052.7246711    
 Coulomb potential           :     -32766.0088986    
 nuclear-nuclear             :     -12036.0705396    
 electron-nuclear            :     -41267.2993645    
 Hartree                     :      4250.64523295    
 Madelung                    :     -32669.7202218    
 xc potential                :     -760.215840731    
 exchange                    :     -561.636830693    
 correlation                 :     -10.5643649827    
 electron entropic           :    -0.223117664211E-04
 total energy                :     -21430.8542949    

Density of states at Fermi energy :    7.025452224    
 (states/Hartree/unit cell)

Estimated indirect band gap :   0.6482436452E-02
 from k-point     29 to k-point      2
Estimated direct band gap   :   0.5733220522    
 at k-point     44

Charges :
 core                        :    68.00000000    
 valence                     :    14.00000000    
 interstitial                :    16.06893783    
 muffin-tins (core leakage)
  species :    1 (Pb)
   atom    1                 :    65.93106217     (   36.87201248    )
 total in muffin-tins        :    65.93106217    
 total calculated charge     :    45.12868014    
 total charge                :    82.00000000    
 error                       :    36.87131986    

RMS change in Kohn-Sham potential (target) :   0.5162965853E-01 (  0.1000000000E-05)
Absolute change in total energy (target)   :    18.11914716     (  0.1000000000E-03)

Time (CPU seconds) :         7.71

+--------------------+
| Loop number :   11 |
+--------------------+

Energies :
 Fermi                       :      36.5126706401    
 sum of eigenvalues          :     -5328.90791305    
 electron kinetic            :      28196.1981351    
 core electron kinetic       :      24625.7068320    
 Coulomb                     :     -49051.3103393    
 Coulomb potential           :     -32764.9272355    
 nuclear-nuclear             :     -12036.0705396    
 electron-nuclear            :     -41265.5523639    
 Hartree                     :      4250.31256418    
 Madelung                    :     -32668.8467215    
 xc potential                :     -760.178812609    
 exchange                    :     -561.609144703    
 correlation                 :     -10.5642525337    
 electron entropic           :    -0.223778275319E-04
 total energy                :     -21427.2856238    

Density of states at Fermi energy :    7.072519464    
 (states/Hartree/unit cell)

Estimated indirect band gap :   0.7264682262E-02
 from k-point     29 to k-point      2
Estimated direct band gap   :   0.5741159295    
 at k-point     44

Charges :
 core                        :    68.00000000    
 valence                     :    14.00000000    
 interstitial                :    16.07534843    
 muffin-tins (core leakage)
  species :    1 (Pb)
   atom    1                 :    65.92465157     (   36.88093648    )
 total in muffin-tins        :    65.92465157    
 total calculated charge     :    45.11975547    
 total charge                :    82.00000000    
 error                       :    36.88024453    

RMS change in Kohn-Sham potential (target) :   0.3792644411E-01 (  0.1000000000E-05)
Absolute change in total energy (target)   :    8.098457873     (  0.1000000000E-03)

Time (CPU seconds) :         8.16

+--------------------+
| Loop number :   12 |
+--------------------+

Energies :
 Fermi                       :      36.5486451664    
 sum of eigenvalues          :     -5327.35325880    
 electron kinetic            :      28197.7122832    
 core electron kinetic       :      24626.6102637    
 Coulomb                     :     -49051.3068866    
 Coulomb potential           :     -32764.8936262    
 nuclear-nuclear             :     -12036.0705396    
 electron-nuclear            :     -41265.5790677    
 Hartree                     :      4250.34272075    
 Madelung                    :     -32668.8600734    
 xc potential                :     -760.171915790    
 exchange                    :     -561.603991518    
 correlation                 :     -10.5642267761    
 electron entropic           :    -0.224021775970E-04
 total energy                :     -21425.7628440    

Density of states at Fermi energy :    7.087574717    
 (states/Hartree/unit cell)

Estimated indirect band gap :   0.7597496060E-02
 from k-point     29 to k-point      2
Estimated direct band gap   :   0.5743107915    
 at k-point     44

Charges :
 core                        :    68.00000000    
 valence                     :    14.00000000    
 interstitial                :    16.07779794    
 muffin-tins (core leakage)
  species :    1 (Pb)
   atom    1                 :    65.92220206     (   36.88459677    )
 total in muffin-tins        :    65.92220206    
 total calculated charge     :    45.11609487    
 total charge                :    82.00000000    
 error                       :    36.88390513    

RMS change in Kohn-Sham potential (target) :   0.2461818417E-01 (  0.1000000000E-05)
Absolute change in total energy (target)   :    3.547394245     (  0.1000000000E-03)

Time (CPU seconds) :         8.62

+--------------------+
| Loop number :   13 |
+--------------------+

Energies :
 Fermi                       :      36.5639539527    
 sum of eigenvalues          :     -5326.57416366    
 electron kinetic            :      28198.6562161    
 core electron kinetic       :      24627.2549283    
 Coulomb                     :     -49051.5458518    
 Coulomb potential           :     -32765.0576019    
 nuclear-nuclear             :     -12036.0705396    
 electron-nuclear            :     -41265.8930227    
 Hartree                     :      4250.41771040    
 Madelung                    :     -32669.0170509    
 xc potential                :     -760.172777852    
 exchange                    :     -561.604638898    
 correlation                 :     -10.5642255882    
 electron entropic           :    -0.223935029881E-04
 total energy                :     -21425.0585227    

Density of states at Fermi energy :    7.089014719    
 (states/Hartree/unit cell)

Estimated indirect band gap :   0.7763539456E-02
 from k-point     29 to k-point      2
Estimated direct band gap   :   0.5743190177    
 at k-point     44

Charges :
 core                        :    68.00000000    
 valence                     :    14.00000000    
 interstitial                :    16.07860654    
 muffin-tins (core leakage)
  species :    1 (Pb)
   atom    1                 :    65.92139346     (   36.88589939    )
 total in muffin-tins        :    65.92139346    
 total calculated charge     :    45.11479206    
 total charge                :    82.00000000    
 error                       :    36.88520794    

RMS change in Kohn-Sham potential (target) :   0.1373191716E-01 (  0.1000000000E-05)
Absolute change in total energy (target)   :    1.591169939     (  0.1000000000E-03)

Time (CPU seconds) :         9.08

+--------------------+
| Loop number :   14 |
+--------------------+

Energies :
 Fermi                       :      36.5703605154    
 sum of eigenvalues          :     -5326.16988479    
 electron kinetic            :      28199.1893222    
 core electron kinetic       :      24627.6479491    
 Coulomb                     :     -49051.7196879    
 Coulomb potential           :     -32765.1847604    
 nuclear-nuclear             :     -12036.0705396    
 electron-nuclear            :     -41266.1135362    
 Hartree                     :      4250.46438791    
 Madelung                    :     -32669.1273077    
 xc potential                :     -760.174446571    
 exchange                    :     -561.605888084    
 correlation                 :     -10.5642286311    
 electron entropic           :    -0.223801150280E-04
 total energy                :     -21424.7005048    

Density of states at Fermi energy :    7.087446506    
 (states/Hartree/unit cell)

Estimated indirect band gap :   0.7849499347E-02
 from k-point     29 to k-point      2
Estimated direct band gap   :   0.5742905365    
 at k-point     44

Charges :
 core                        :    68.00000000    
 valence                     :    14.00000000    
 interstitial                :    16.07880720    
 muffin-tins (core leakage)
  species :    1 (Pb)
   atom    1                 :    65.92119280     (   36.88625240    )
 total in muffin-tins        :    65.92119280    
 total calculated charge     :    45.11443890    
 total charge                :    82.00000000    
 error                       :    36.88556110    

RMS change in Kohn-Sham potential (target) :   0.6831729756E-02 (  0.1000000000E-05)
Absolute change in total energy (target)   :   0.7558103427     (  0.1000000000E-03)

Time (CPU seconds) :         9.54

+--------------------+
| Loop number :   15 |
+--------------------+

Energies :
 Fermi                       :      36.5729750796    
 sum of eigenvalues          :     -5325.96093195    
 electron kinetic            :      28199.4668634    
 core electron kinetic       :      24627.8625795    
 Coulomb                     :     -49051.8075801    
 Coulomb potential           :     -32765.2522790    
 nuclear-nuclear             :     -12036.0705396    
 electron-nuclear            :     -41266.2218020    
 Hartree                     :      4250.48476151    
 Madelung                    :     -32669.1814406    
 xc potential                :     -760.175516385    
 exchange                    :     -561.606688603    
 correlation                 :     -10.5642310233    
 electron entropic           :    -0.223710653071E-04
 total energy                :     -21424.5116586    

Density of states at Fermi energy :    7.086023925    
 (states/Hartree/unit cell)

Estimated indirect band gap :   0.7888916198E-02
 from k-point     29 to k-point      2
Estimated direct band gap   :   0.5742671587    
 at k-point     44

Charges :
 core                        :    68.00000000    
 valence                     :    14.00000000    
 interstitial                :    16.07881813    
 muffin-tins (core leakage)
  species :    1 (Pb)
   atom    1                 :    65.92118187     (   36.88628307    )
 total in muffin-tins        :    65.92118187    
 total calculated charge     :    45.11440813    
 total charge                :    82.00000000    
 error                       :    36.88559187    

RMS change in Kohn-Sham potential (target) :   0.3086780569E-02 (  0.1000000000E-05)
Absolute change in total energy (target)   :   0.3777987329     (  0.1000000000E-03)

Time (CPU seconds) :         9.99

+--------------------+
| Loop number :   16 |
+--------------------+

Energies :
 Fermi                       :      36.5739936625    
 sum of eigenvalues          :     -5325.85842726    
 electron kinetic            :      28199.5997894    
 core electron kinetic       :      24627.9684396    
 Coulomb                     :     -49051.8443817    
 Coulomb potential           :     -32765.2821755    
 nuclear-nuclear             :     -12036.0705396    
 electron-nuclear            :     -41266.2655088    
 Hartree                     :      4250.49166663    
 Madelung                    :     -32669.2032940    
 xc potential                :     -760.176041195    
 exchange                    :     -561.607081214    
 correlation                 :     -10.5642323175    
 electron entropic           :    -0.223665142106E-04
 total energy                :     -21424.4159282    

Density of states at Fermi energy :    7.085229989    
 (states/Hartree/unit cell)

Estimated indirect band gap :   0.7903759456E-02
 from k-point     29 to k-point      2
Estimated direct band gap   :   0.5742543251    
 at k-point     44

Charges :
 core                        :    68.00000000    
 valence                     :    14.00000000    
 interstitial                :    16.07879048    
 muffin-tins (core leakage)
  species :    1 (Pb)
   atom    1                 :    65.92120952     (   36.88623988    )
 total in muffin-tins        :    65.92120952    
 total calculated charge     :    45.11445125    
 total charge                :    82.00000000    
 error                       :    36.88554875    

RMS change in Kohn-Sham potential (target) :   0.1271220522E-02 (  0.1000000000E-05)
Absolute change in total energy (target)   :   0.1901801699     (  0.1000000000E-03)

Time (CPU seconds) :        10.45

+--------------------+
| Loop number :   17 |
+--------------------+

Energies :
 Fermi                       :      36.5743652500    
 sum of eigenvalues          :     -5325.81265159    
 electron kinetic            :      28199.6575689    
 core electron kinetic       :      24628.0150881    
 Coulomb                     :     -49051.8578219    
 Coulomb potential           :     -32765.2939612    
 nuclear-nuclear             :     -12036.0705396    
 electron-nuclear            :     -41266.2806034    
 Hartree                     :      4250.49332110    
 Madelung                    :     -32669.2108413    
 xc potential                :     -760.176259213    
 exchange                    :     -561.607244285    
 correlation                 :     -10.5642328910    
 electron entropic           :    -0.223645571354E-04
 total energy                :     -21424.3717526    

Density of states at Fermi energy :    7.084867916    
 (states/Hartree/unit cell)

Estimated indirect band gap :   0.7908603550E-02
 from k-point     29 to k-point      2
Estimated direct band gap   :   0.5742486000    
 at k-point     44

Charges :
 core                        :    68.00000000    
 valence                     :    14.00000000    
 interstitial                :    16.07876830    
 muffin-tins (core leakage)
  species :    1 (Pb)
   atom    1                 :    65.92123170     (   36.88620189    )
 total in muffin-tins        :    65.92123170    
 total calculated charge     :    45.11448920    
 total charge                :    82.00000000    
 error                       :    36.88551080    

RMS change in Kohn-Sham potential (target) :   0.4828958201E-03 (  0.1000000000E-05)
Absolute change in total energy (target)   :   0.9172061506E-01 (  0.1000000000E-03)

Time (CPU seconds) :        10.91

+--------------------+
| Loop number :   18 |
+--------------------+

Energies :
 Fermi                       :      36.5744912319    
 sum of eigenvalues          :     -5325.79447031    
 electron kinetic            :      28199.6798490    
 core electron kinetic       :      24628.0328352    
 Coulomb                     :     -49051.8618593    
 Coulomb potential           :     -32765.2979880    
 nuclear-nuclear             :     -12036.0705396    
 electron-nuclear            :     -41266.2846515    
 Hartree                     :      4250.49333174    
 Madelung                    :     -32669.2128653    
 xc potential                :     -760.176331315    
 exchange                    :     -561.607298208    
 correlation                 :     -10.5642330893    
 electron entropic           :    -0.223637763302E-04
 total energy                :     -21424.3535640    

Density of states at Fermi energy :    7.084720155    
 (states/Hartree/unit cell)

Estimated indirect band gap :   0.7910262029E-02
 from k-point     29 to k-point      2
Estimated direct band gap   :   0.5742464434    
 at k-point     44

Charges :
 core                        :    68.00000000    
 valence                     :    14.00000000    
 interstitial                :    16.07875744    
 muffin-tins (core leakage)
  species :    1 (Pb)
   atom    1                 :    65.92124256     (   36.88618220    )
 total in muffin-tins        :    65.92124256    
 total calculated charge     :    45.11450888    
 total charge                :    82.00000000    
 error                       :    36.88549112    

RMS change in Kohn-Sham potential (target) :   0.1878725523E-03 (  0.1000000000E-05)
Absolute change in total energy (target)   :   0.4111877970E-01 (  0.1000000000E-03)

Time (CPU seconds) :        11.36

+--------------------+
| Loop number :   19 |
+--------------------+

Energies :
 Fermi                       :      36.5745304615    
 sum of eigenvalues          :     -5325.78799315    
 electron kinetic            :      28199.6872277    
 core electron kinetic       :      24628.0383545    
 Coulomb                     :     -49051.8624438    
 Coulomb potential           :     -32765.2988757    
 nuclear-nuclear             :     -12036.0705396    
 electron-nuclear            :     -41266.2849328    
 Hartree                     :      4250.49302852    
 Madelung                    :     -32669.2130059    
 xc potential                :     -760.176345135    
 exchange                    :     -561.607308540    
 correlation                 :     -10.5642331315    
 electron entropic           :    -0.223634926979E-04
 total energy                :     -21424.3467801    

Density of states at Fermi energy :    7.084667352    
 (states/Hartree/unit cell)

Estimated indirect band gap :   0.7910911180E-02
 from k-point     29 to k-point      2
Estimated direct band gap   :   0.5742457718    
 at k-point     44

Charges :
 core                        :    68.00000000    
 valence                     :    14.00000000    
 interstitial                :    16.07875363    
 muffin-tins (core leakage)
  species :    1 (Pb)
   atom    1                 :    65.92124637     (   36.88617486    )
 total in muffin-tins        :    65.92124637    
 total calculated charge     :    45.11451621    
 total charge                :    82.00000000    
 error                       :    36.88548379    

RMS change in Kohn-Sham potential (target) :   0.8535931088E-04 (  0.1000000000E-05)
Absolute change in total energy (target)   :   0.1706350963E-01 (  0.1000000000E-03)

Time (CPU seconds) :        11.80

+--------------------+
| Loop number :   20 |
+--------------------+

Energies :
 Fermi                       :      36.5745413623    
 sum of eigenvalues          :     -5325.78589149    
 electron kinetic            :      28199.6892535    
 core electron kinetic       :      24628.0396078    
 Coulomb                     :     -49051.8621179    
 Coulomb potential           :     -32765.2988030    
 nuclear-nuclear             :     -12036.0705396    
 electron-nuclear            :     -41266.2843537    
 Hartree                     :      4250.49277532    
 Madelung                    :     -32669.2127164    
 xc potential                :     -760.176341990    
 exchange                    :     -561.607306185    
 correlation                 :     -10.5642331261    
 electron entropic           :    -0.223633997478E-04
 total energy                :     -21424.3444261    

Density of states at Fermi energy :    7.084651306    
 (states/Hartree/unit cell)

Estimated indirect band gap :   0.7911202588E-02
 from k-point     29 to k-point      2
Estimated direct band gap   :   0.5742456129    
 at k-point     44

Charges :
 core                        :    68.00000000    
 valence                     :    14.00000000    
 interstitial                :    16.07875271    
 muffin-tins (core leakage)
  species :    1 (Pb)
   atom    1                 :    65.92124729     (   36.88617278    )
 total in muffin-tins        :    65.92124729    
 total calculated charge     :    45.11451828    
 total charge                :    82.00000000    
 error                       :    36.88548172    

RMS change in Kohn-Sham potential (target) :   0.4045924146E-04 (  0.1000000000E-05)
Absolute change in total energy (target)   :   0.6619961288E-02 (  0.1000000000E-03)

Time (CPU seconds) :        12.26

+--------------------+
| Loop number :   21 |
+--------------------+

Energies :
 Fermi                       :      36.5745448651    
 sum of eigenvalues          :     -5325.78520704    
 electron kinetic            :      28199.6896754    
 core electron kinetic       :      24628.0397554    
 Coulomb                     :     -49051.8616973    
 Coulomb potential           :     -32765.2985464    
 nuclear-nuclear             :     -12036.0705396    
 electron-nuclear            :     -41266.2837691    
 Hartree                     :      4250.49261134    
 Madelung                    :     -32669.2124241    
 xc potential                :     -760.176336025    
 exchange                    :     -561.607301722    
 correlation                 :     -10.5642331117    
 electron entropic           :    -0.223633671941E-04
 total energy                :     -21424.3435791    

Density of states at Fermi energy :    7.084646705    
 (states/Hartree/unit cell)

Estimated indirect band gap :   0.7911372751E-02
 from k-point     29 to k-point      2
Estimated direct band gap   :   0.5742455991    
 at k-point     44

Charges :
 core                        :    68.00000000    
 valence                     :    14.00000000    
 interstitial                :    16.07875268    
 muffin-tins (core leakage)
  species :    1 (Pb)
   atom    1                 :    65.92124732     (   36.88617244    )
 total in muffin-tins        :    65.92124732    
 total calculated charge     :    45.11451862    
 total charge                :    82.00000000    
 error                       :    36.88548138    

RMS change in Kohn-Sham potential (target) :   0.1680806072E-04 (  0.1000000000E-05)
Absolute change in total energy (target)   :   0.2501930147E-02 (  0.1000000000E-03)

Time (CPU seconds) :        12.70

+--------------------+
| Loop number :   22 |
+--------------------+

Energies :
 Fermi                       :      36.5745452038    
 sum of eigenvalues          :     -5325.78500536    
 electron kinetic            :      28199.6897649    
 core electron kinetic       :      24628.0397516    
 Coulomb                     :     -49051.8615184    
 Coulomb potential           :     -32765.2984367    
 nuclear-nuclear             :     -12036.0705396    
 electron-nuclear            :     -41266.2835209    
 Hartree                     :      4250.49254208    
 Madelung                    :     -32669.2123000    
 xc potential                :     -760.176333508    
 exchange                    :     -561.607299839    
 correlation                 :     -10.5642331056    
 electron entropic           :    -0.223633518119E-04
 total energy                :     -21424.3433088    

Density of states at Fermi energy :    7.084644584    
 (states/Hartree/unit cell)

Estimated indirect band gap :   0.7911462473E-02
 from k-point     29 to k-point      2
Estimated direct band gap   :   0.5742455839    
 at k-point     44

Charges :
 core                        :    68.00000000    
 valence                     :    14.00000000    
 interstitial                :    16.07875270    
 muffin-tins (core leakage)
  species :    1 (Pb)
   atom    1                 :    65.92124730     (   36.88617235    )
 total in muffin-tins        :    65.92124730    
 total calculated charge     :    45.11451872    
 total charge                :    82.00000000    
 error                       :    36.88548128    

RMS change in Kohn-Sham potential (target) :   0.6333105576E-05 (  0.1000000000E-05)
Absolute change in total energy (target)   :   0.8957962054E-03 (  0.1000000000E-03)

Time (CPU seconds) :        13.16

+--------------------+
| Loop number :   23 |
+--------------------+

Energies :
 Fermi                       :      36.5745447846    
 sum of eigenvalues          :     -5325.78495467    
 electron kinetic            :      28199.6897914    
 core electron kinetic       :      24628.0397462    
 Coulomb                     :     -49051.8614790    
 Coulomb potential           :     -32765.2984131    
 nuclear-nuclear             :     -12036.0705396    
 electron-nuclear            :     -41266.2834658    
 Hartree                     :      4250.49252632    
 Madelung                    :     -32669.2122724    
 xc potential                :     -760.176332925    
 exchange                    :     -561.607299403    
 correlation                 :     -10.5642331042    
 electron entropic           :    -0.223633437640E-04
 total energy                :     -21424.3432425    

Density of states at Fermi energy :    7.084643394    
 (states/Hartree/unit cell)

Estimated indirect band gap :   0.7911506638E-02
 from k-point     29 to k-point      2
Estimated direct band gap   :   0.5742455663    
 at k-point     44

Charges :
 core                        :    68.00000000    
 valence                     :    14.00000000    
 interstitial                :    16.07875270    
 muffin-tins (core leakage)
  species :    1 (Pb)
   atom    1                 :    65.92124730     (   36.88617229    )
 total in muffin-tins        :    65.92124730    
 total calculated charge     :    45.11451877    
 total charge                :    82.00000000    
 error                       :    36.88548123    

RMS change in Kohn-Sham potential (target) :   0.2257825791E-05 (  0.1000000000E-05)
Absolute change in total energy (target)   :   0.2902549677E-03 (  0.1000000000E-03)

Time (CPU seconds) :        13.63

+--------------------+
| Loop number :   24 |
+--------------------+

Energies :
 Fermi                       :      36.5745444630    
 sum of eigenvalues          :     -5325.78494328    
 electron kinetic            :      28199.6898006    
 core electron kinetic       :      24628.0397448    
 Coulomb                     :     -49051.8614752    
 Coulomb potential           :     -32765.2984110    
 nuclear-nuclear             :     -12036.0705396    
 electron-nuclear            :     -41266.2834602    
 Hartree                     :      4250.49252459    
 Madelung                    :     -32669.2122697    
 xc potential                :     -760.176332851    
 exchange                    :     -561.607299347    
 correlation                 :     -10.5642331040    
 electron entropic           :    -0.223633399441E-04
 total energy                :     -21424.3432294    

Density of states at Fermi energy :    7.084642820    
 (states/Hartree/unit cell)

Estimated indirect band gap :   0.7911527426E-02
 from k-point     29 to k-point      2
Estimated direct band gap   :   0.5742455551    
 at k-point     44

Charges :
 core                        :    68.00000000    
 valence                     :    14.00000000    
 interstitial                :    16.07875269    
 muffin-tins (core leakage)
  species :    1 (Pb)
   atom    1                 :    65.92124731     (   36.88617226    )
 total in muffin-tins        :    65.92124731    
 total calculated charge     :    45.11451880    
 total charge                :    82.00000000    
 error                       :    36.88548120    

RMS change in Kohn-Sham potential (target) :   0.7580891242E-06 (  0.1000000000E-05)
Absolute change in total energy (target)   :   0.8566263568E-04 (  0.1000000000E-03)

Convergence targets achieved

Time (CPU seconds) :        14.08

+--------------------+
| Loop number :   25 |
+--------------------+

Energies :
 Fermi                       :      36.5745443259    
 sum of eigenvalues          :     -5325.78494106    
 electron kinetic            :      28199.6898023    
 core electron kinetic       :      24628.0397436    
 Coulomb                     :     -49051.8614722    
 Coulomb potential           :     -32765.2984105    
 nuclear-nuclear             :     -12036.0705396    
 electron-nuclear            :     -41266.2834547    
 Hartree                     :      4250.49252212    
 Madelung                    :     -32669.2122669    
 xc potential                :     -760.176332834    
 exchange                    :     -561.607299335    
 correlation                 :     -10.5642331040    
 electron entropic           :    -0.223633382524E-04
 total energy                :     -21424.3432247    

Density of states at Fermi energy :    7.084642574    
 (states/Hartree/unit cell)

Estimated indirect band gap :   0.7911537102E-02
 from k-point     29 to k-point      2
Estimated direct band gap   :   0.5742455500    
 at k-point     44

Charges :
 core                        :    68.00000000    
 valence                     :    14.00000000    
 interstitial                :    16.07875269    
 muffin-tins (core leakage)
  species :    1 (Pb)
   atom    1                 :    65.92124731     (   36.88617225    )
 total in muffin-tins        :    65.92124731    
 total calculated charge     :    45.11451881    
 total charge                :    82.00000000    
 error                       :    36.88548119    

+------------------------------+
| Self-consistent loop stopped |
+------------------------------+

Wrote STATE.OUT

Timings (CPU seconds) :
 initialisation                        :         2.95
 Hamiltonian and overlap matrix set up :         2.96
 first-variational eigenvalue equation :         1.98
 charge density calculation            :         5.86
 potential calculation                 :         0.79
 total                                 :        14.54

+----------------------------+
| Elk version 4.0.15 stopped |
+----------------------------+
