+----------------------------+
| Elk version 4.0.15 started |
+----------------------------+

Date (YYYY-MM-DD) : 2018-11-23
Time (hh:mm:ss)   : 09:15:48

Notes :
 Simple calculation of the ground state of aluminium. Must check convergence    
 with respect to k-point set later.                                             
 Run by H. Golightly                                                            

All units are atomic (Hartree, Bohr, etc.)

+-------------------------------------------------+
| Ground-state run starting from atomic densities |
+-------------------------------------------------+

Lattice vectors :
   0.000000000      0.5000000000      0.5000000000    
  0.5000000000       0.000000000      0.5000000000    
  0.5000000000      0.5000000000       0.000000000    

Reciprocal lattice vectors :
  -6.283185307       6.283185307       6.283185307    
   6.283185307      -6.283185307       6.283185307    
   6.283185307       6.283185307      -6.283185307    

Unit cell volume      :   0.2500000000    
Brillouin zone volume :    992.2008538    

Species :    1 (Pb)
 parameters loaded from : Pb.in
 name : lead
 nuclear charge    :   -82.00000000    
 electronic charge :    82.00000000    
 atomic mass :    377702.4940    
 muffin-tin radius :   0.3285533906    
 number of radial points in muffin-tin :    697
 number on inner part of muffin-tin    :    469
 atomic positions (lattice), magnetic fields (Cartesian) :
   1 :   0.00000000  0.00000000  0.00000000    0.00000000  0.00000000  0.00000000

Total number of atoms per unit cell :    1

Spin treatment :
 spin-unpolarised

Number of Bravais lattice symmetries :   48
Number of crystal symmetries         :   48
Crystal has inversion symmetry
Real symmetric eigensolver will be used

k-point grid :      8     8     8
k-point offset :    0.000000000       0.000000000       0.000000000    
k-point set is reduced with full crystal symmetry group
Total number of k-points :       29

Muffin-tin radius times maximum |G+k| :    8.000000000    
 using average radius
Maximum |G+k| for APW functions       :    24.34916281    
Maximum (1/2)|G+k|^2                  :    296.4408648    
Maximum |G| for potential and density :    48.69832662    
Constant for pseudocharge density :    4
Radial integration step length :    4

G-vector grid sizes :     12    12    12
Number of G-vectors :      531

Maximum angular momentum used for
 APW functions                      :    8
 H and O matrix elements outer loop :    7
 outer part of muffin-tin           :    7
 inner part of muffin-tin           :    3

Total nuclear charge    :   -82.00000000    
Total core charge       :    68.00000000    
Total valence charge    :    14.00000000    
Total excess charge     :    0.000000000    
Total electronic charge :    82.00000000    

Effective Wigner radius, r_s :   0.8995235040E-01

Number of empty states         :    4
Total number of valence states :   12
Total number of core states    :   68

Total number of local-orbitals :   15

Exchange-correlation functional :      3     0     0
 Perdew-Wang/Ceperley-Alder, Phys. Rev. B 45, 13244 (1992)
 Local density approximation (LDA)

Smearing type :    3
 Fermi-Dirac
Smearing width :   0.1000000000E-02
Effective electronic temperature (K) :    315.7750425    

Mixing type :    1
 Adaptive linear mixing

Density and potential initialised from atomic data

+------------------------------+
| Self-consistent loop started |
+------------------------------+

+--------------------+
| Loop number :    1 |
+--------------------+

Energies :
 Fermi                       :      23.9020819926    
 sum of eigenvalues          :     -5862.37087525    
 electron kinetic            :      28452.5124700    
 core electron kinetic       :      25280.8906321    
 Coulomb                     :     -50059.9672136    
 Coulomb potential           :     -33538.4639968    
 nuclear-nuclear             :     -12036.0705396    
 electron-nuclear            :     -42509.3293513    
 Hartree                     :      4485.43267727    
 Madelung                    :     -33290.7352152    
 xc potential                :     -776.419348430    
 exchange                    :     -573.758128632    
 correlation                 :     -10.6057134268    
 electron entropic           :    -0.353222026310E-04
 total energy                :     -22191.8186210    

Density of states at Fermi energy :    10.25390625    
 (states/Hartree/unit cell)

Estimated indirect band gap :   0.2724668933E-01
 from k-point     11 to k-point      2
Estimated direct band gap   :   0.5754342911    
 at k-point     15

Charges :
 core                        :    68.00000000    
 valence                     :    14.00000000    
 interstitial                :    14.94343802    
 muffin-tins (core leakage)
  species :    1 (Pb)
   atom    1                 :    67.05656198     (   35.23148177    )
 total in muffin-tins        :    67.05656198    
 total calculated charge     :    46.76943585    
 total charge                :    82.00000000    
 error                       :    35.23056415    

Time (CPU seconds) :         3.20

+--------------------+
| Loop number :    2 |
+--------------------+

Energies :
 Fermi                       :      25.6422545001    
 sum of eigenvalues          :     -5787.10073711    
 electron kinetic            :      28417.6020375    
 core electron kinetic       :      25153.9649429    
 Coulomb                     :     -49919.9843143    
 Coulomb potential           :     -33430.5318303    
 nuclear-nuclear             :     -12036.0705396    
 electron-nuclear            :     -42337.2957191    
 Hartree                     :      4453.38194438    
 Madelung                    :     -33204.7183991    
 xc potential                :     -774.170944289    
 exchange                    :     -572.076108517    
 correlation                 :     -10.6000628734    
 electron entropic           :    -0.353222026018E-04
 total energy                :     -22085.0584835    

Density of states at Fermi energy :    10.25390624    
 (states/Hartree/unit cell)

Estimated indirect band gap :   0.3489522461E-01
 from k-point     11 to k-point      2
Estimated direct band gap   :   0.6154229621    
 at k-point     15

Charges :
 core                        :    68.00000000    
 valence                     :    14.00000000    
 interstitial                :    15.09067774    
 muffin-tins (core leakage)
  species :    1 (Pb)
   atom    1                 :    66.90932226     (   35.47161454    )
 total in muffin-tins        :    66.90932226    
 total calculated charge     :    46.52927914    
 total charge                :    82.00000000    
 error                       :    35.47072086    

RMS change in Kohn-Sham potential (target) :    20.40923473     (  0.1000000000E-05)
Absolute change in total energy (target)   :    106.7601376     (  0.1000000000E-03)

Time (CPU seconds) :         3.45

+--------------------+
| Loop number :    3 |
+--------------------+

Energies :
 Fermi                       :      27.8685804878    
 sum of eigenvalues          :     -5690.79290021    
 electron kinetic            :      28368.8603431    
 core electron kinetic       :      25011.7716220    
 Coulomb                     :     -49735.2932107    
 Coulomb potential           :     -33288.4371454    
 nuclear-nuclear             :     -12036.0705396    
 electron-nuclear            :     -42110.0081968    
 Hartree                     :      4410.78552567    
 Madelung                    :     -33091.0746380    
 xc potential                :     -771.216097924    
 exchange                    :     -569.865620369    
 correlation                 :     -10.5926127650    
 electron entropic           :    -0.353222026083E-04
 total energy                :     -21946.8911360    

Density of states at Fermi energy :    10.25390625    
 (states/Hartree/unit cell)

Estimated indirect band gap :   0.4704698172E-01
 from k-point     11 to k-point      2
Estimated direct band gap   :   0.6704264004    
 at k-point     15

Charges :
 core                        :    68.00000000    
 valence                     :    14.00000000    
 interstitial                :    15.28423266    
 muffin-tins (core leakage)
  species :    1 (Pb)
   atom    1                 :    66.71576734     (   35.77426039    )
 total in muffin-tins        :    66.71576734    
 total calculated charge     :    46.22659854    
 total charge                :    82.00000000    
 error                       :    35.77340146    

RMS change in Kohn-Sham potential (target) :    15.81202869     (  0.1000000000E-05)
Absolute change in total energy (target)   :    164.8573819     (  0.1000000000E-03)

Time (CPU seconds) :         3.70

+--------------------+
| Loop number :    4 |
+--------------------+

Energies :
 Fermi                       :      30.1949671962    
 sum of eigenvalues          :     -5590.23456796    
 electron kinetic            :      28314.0528388    
 core electron kinetic       :      24877.3616284    
 Coulomb                     :     -49536.9749154    
 Coulomb potential           :     -33136.2334459    
 nuclear-nuclear             :     -12036.0705396    
 electron-nuclear            :     -41865.5753058    
 Hartree                     :      4364.67092993    
 Madelung                    :     -32968.8581925    
 xc potential                :     -768.053960821    
 exchange                    :     -567.500089006    
 correlation                 :     -10.5846016210    
 electron entropic           :    -0.353272874151E-04
 total energy                :     -21801.0068026    

Density of states at Fermi energy :    10.25403345    
 (states/Hartree/unit cell)

Estimated indirect band gap :   0.6304506264E-01
 from k-point     11 to k-point      2
Estimated direct band gap   :   0.7330260607    
 at k-point     15

Charges :
 core                        :    68.00000000    
 valence                     :    14.00000000    
 interstitial                :    15.49365794    
 muffin-tins (core leakage)
  species :    1 (Pb)
   atom    1                 :    66.50634206     (   36.08626794    )
 total in muffin-tins        :    66.50634206    
 total calculated charge     :    45.91455030    
 total charge                :    82.00000000    
 error                       :    36.08544970    

RMS change in Kohn-Sham potential (target) :    10.99536941     (  0.1000000000E-05)
Absolute change in total energy (target)   :    187.0986789     (  0.1000000000E-03)

Time (CPU seconds) :         3.95

+--------------------+
| Loop number :    5 |
+--------------------+

Energies :
 Fermi                       :      32.2997987265    
 sum of eigenvalues          :     -5500.44193418    
 electron kinetic            :      28263.2295703    
 core electron kinetic       :      24768.4575418    
 Coulomb                     :     -49357.0782087    
 Coulomb potential           :     -32998.4831556    
 nuclear-nuclear             :     -12036.0705396    
 electron-nuclear            :     -41643.5321826    
 Hartree                     :      4322.52451350    
 Madelung                    :     -32857.8366309    
 xc potential                :     -765.188348845    
 exchange                    :     -565.356415836    
 correlation                 :     -10.5772968138    
 electron entropic           :    -0.201556805052E-04
 total energy                :     -21669.7823712    

Density of states at Fermi energy :    6.735520134    
 (states/Hartree/unit cell)

Estimated indirect band gap :   0.5798921565E-01
 from k-point     13 to k-point      2
Estimated direct band gap   :   0.7940338076    
 at k-point     15

Charges :
 core                        :    68.00000000    
 valence                     :    14.00000000    
 interstitial                :    15.68820136    
 muffin-tins (core leakage)
  species :    1 (Pb)
   atom    1                 :    66.31179864     (   36.36286693    )
 total in muffin-tins        :    66.31179864    
 total calculated charge     :    45.63791252    
 total charge                :    82.00000000    
 error                       :    36.36208748    

RMS change in Kohn-Sham potential (target) :    6.741364342     (  0.1000000000E-05)
Absolute change in total energy (target)   :    177.9991011     (  0.1000000000E-03)

Time (CPU seconds) :         4.19

+--------------------+
| Loop number :    6 |
+--------------------+

Energies :
 Fermi                       :      33.9588682697    
 sum of eigenvalues          :     -5430.70050336    
 electron kinetic            :      28224.8908629    
 core electron kinetic       :      24693.2843112    
 Coulomb                     :     -49218.5469849    
 Coulomb potential           :     -32892.6181547    
 nuclear-nuclear             :     -12036.0705396    
 electron-nuclear            :     -41472.3347359    
 Hartree                     :      4289.85829060    
 Madelung                    :     -32772.2379075    
 xc potential                :     -762.973211554    
 exchange                    :     -563.699374097    
 correlation                 :     -10.5716077024    
 electron entropic           :    -0.200116666255E-04
 total energy                :     -21567.9271238    

Density of states at Fermi energy :    6.695501469    
 (states/Hartree/unit cell)

Estimated indirect band gap :   0.4556523556E-01
 from k-point     13 to k-point      2
Estimated direct band gap   :   0.8450214430    
 at k-point     15

Charges :
 core                        :    68.00000000    
 valence                     :    14.00000000    
 interstitial                :    15.84467262    
 muffin-tins (core leakage)
  species :    1 (Pb)
   atom    1                 :    66.15532738     (   36.57710911    )
 total in muffin-tins        :    66.15532738    
 total calculated charge     :    45.42363753    
 total charge                :    82.00000000    
 error                       :    36.57636247    

RMS change in Kohn-Sham potential (target) :    3.556983284     (  0.1000000000E-05)
Absolute change in total energy (target)   :    146.3550227     (  0.1000000000E-03)

Time (CPU seconds) :         4.46

+--------------------+
| Loop number :    7 |
+--------------------+

Energies :
 Fermi                       :      35.1034916073    
 sum of eigenvalues          :     -5383.27329121    
 electron kinetic            :      28202.2856460    
 core electron kinetic       :      24650.1189560    
 Coulomb                     :     -49128.6326438    
 Coulomb potential           :     -32824.0406861    
 nuclear-nuclear             :     -12036.0705396    
 electron-nuclear            :     -41361.0835224    
 Hartree                     :      4268.52141814    
 Madelung                    :     -32716.6123007    
 xc potential                :     -761.518251150    
 exchange                    :     -562.611012220    
 correlation                 :     -10.5678355694    
 electron entropic           :    -0.199036355179E-04
 total energy                :     -21499.5258655    

Density of states at Fermi energy :    6.665763663    
 (states/Hartree/unit cell)

Estimated indirect band gap :   0.3583976124E-01
 from k-point     13 to k-point      2
Estimated direct band gap   :   0.8815782935    
 at k-point     15

Charges :
 core                        :    68.00000000    
 valence                     :    14.00000000    
 interstitial                :    15.95351926    
 muffin-tins (core leakage)
  species :    1 (Pb)
   atom    1                 :    66.04648074     (   36.72229662    )
 total in muffin-tins        :    66.04648074    
 total calculated charge     :    45.27842757    
 total charge                :    82.00000000    
 error                       :    36.72157243    

RMS change in Kohn-Sham potential (target) :    1.557258489     (  0.1000000000E-05)
Absolute change in total energy (target)   :    104.9900140     (  0.1000000000E-03)

Time (CPU seconds) :         4.71

+--------------------+
| Loop number :    8 |
+--------------------+

Energies :
 Fermi                       :      35.8007166986    
 sum of eigenvalues          :     -5354.90158011    
 electron kinetic            :      28193.0586596    
 core electron kinetic       :      24630.5847368    
 Coulomb                     :     -49080.2809312    
 Coulomb potential           :     -32787.2444642    
 nuclear-nuclear             :     -12036.0705396    
 electron-nuclear            :     -41301.1763191    
 Hartree                     :      4256.96592746    
 Madelung                    :     -32686.6586991    
 xc potential                :     -760.715775557    
 exchange                    :     -562.010753037    
 correlation                 :     -10.5657273227    
 electron entropic           :    -0.198272188676E-04
 total energy                :     -21459.7987718    

Density of states at Fermi energy :    6.644876674    
 (states/Hartree/unit cell)

Estimated indirect band gap :   0.2937769687E-01
 from k-point     13 to k-point      2
Estimated direct band gap   :   0.9037711314    
 at k-point     15

Charges :
 core                        :    68.00000000    
 valence                     :    14.00000000    
 interstitial                :    16.01880891    
 muffin-tins (core leakage)
  species :    1 (Pb)
   atom    1                 :    65.98119109     (   36.80810742    )
 total in muffin-tins        :    65.98119109    
 total calculated charge     :    45.19260380    
 total charge                :    82.00000000    
 error                       :    36.80739620    

RMS change in Kohn-Sham potential (target) :   0.5316124778     (  0.1000000000E-05)
Absolute change in total energy (target)   :    65.97459719     (  0.1000000000E-03)

Time (CPU seconds) :         4.96

+--------------------+
| Loop number :    9 |
+--------------------+

Energies :
 Fermi                       :      36.1780849097    
 sum of eigenvalues          :     -5339.80906379    
 electron kinetic            :      28191.9223287    
 core electron kinetic       :      24624.6462885    
 Coulomb                     :     -49059.4049825    
 Coulomb potential           :     -32771.3800364    
 nuclear-nuclear             :     -12036.0705396    
 electron-nuclear            :     -41275.2888494    
 Hartree                     :      4251.95440654    
 Madelung                    :     -32673.7149643    
 xc potential                :     -760.351356174    
 exchange                    :     -561.738179857    
 correlation                 :     -10.5647491923    
 electron entropic           :    -0.197921614617E-04
 total energy                :     -21439.7856026    

Density of states at Fermi energy :    6.635335977    
 (states/Hartree/unit cell)

Estimated indirect band gap :   0.2573105024E-01
 from k-point     13 to k-point      2
Estimated direct band gap   :   0.9150512893    
 at k-point     15

Charges :
 core                        :    68.00000000    
 valence                     :    14.00000000    
 interstitial                :    16.05258342    
 muffin-tins (core leakage)
  species :    1 (Pb)
   atom    1                 :    65.94741658     (   36.85226916    )
 total in muffin-tins        :    65.94741658    
 total calculated charge     :    45.14843660    
 total charge                :    82.00000000    
 error                       :    36.85156340    

RMS change in Kohn-Sham potential (target) :   0.1324186691     (  0.1000000000E-05)
Absolute change in total energy (target)   :    36.50681849     (  0.1000000000E-03)

Time (CPU seconds) :         5.21

+--------------------+
| Loop number :   10 |
+--------------------+

Energies :
 Fermi                       :      36.3624623387    
 sum of eigenvalues          :     -5332.48047228    
 electron kinetic            :      28194.0409870    
 core electron kinetic       :      24624.4658540    
 Coulomb                     :     -49052.6440186    
 Coulomb potential           :     -32766.3019725    
 nuclear-nuclear             :     -12036.0705396    
 electron-nuclear            :     -41266.8449855    
 Hartree                     :      4250.27150650    
 Madelung                    :     -32669.4930323    
 xc potential                :     -760.219486756    
 exchange                    :     -561.639556915    
 correlation                 :     -10.5643807082    
 electron entropic           :    -0.198027460123E-04
 total energy                :     -21430.8069890    

Density of states at Fermi energy :    6.638213729    
 (states/Hartree/unit cell)

Estimated indirect band gap :   0.2399552223E-01
 from k-point     13 to k-point      2
Estimated direct band gap   :   0.9198174718    
 at k-point     15

Charges :
 core                        :    68.00000000    
 valence                     :    14.00000000    
 interstitial                :    16.06780612    
 muffin-tins (core leakage)
  species :    1 (Pb)
   atom    1                 :    65.93219388     (   36.87225014    )
 total in muffin-tins        :    65.93219388    
 total calculated charge     :    45.12845361    
 total charge                :    82.00000000    
 error                       :    36.87154639    

RMS change in Kohn-Sham potential (target) :   0.5144277571E-01 (  0.1000000000E-05)
Absolute change in total energy (target)   :    18.10531818     (  0.1000000000E-03)

Time (CPU seconds) :         5.46

+--------------------+
| Loop number :   11 |
+--------------------+

Energies :
 Fermi                       :      36.4458086627    
 sum of eigenvalues          :     -5329.24219092    
 electron kinetic            :      28196.1568737    
 core electron kinetic       :      24625.3915237    
 Coulomb                     :     -49051.2237961    
 Coulomb potential           :     -32765.2166959    
 nuclear-nuclear             :     -12036.0705396    
 electron-nuclear            :     -41265.0898171    
 Hartree                     :      4249.93656059    
 Madelung                    :     -32668.6154481    
 xc potential                :     -760.182368721    
 exchange                    :     -561.611803664    
 correlation                 :     -10.5642680400    
 electron entropic           :    -0.197819618923E-04
 total energy                :     -21427.2430138    

Density of states at Fermi energy :    6.632565130    
 (states/Hartree/unit cell)

Estimated indirect band gap :   0.2329908149E-01
 from k-point     13 to k-point      2
Estimated direct band gap   :   0.9214827522    
 at k-point     15

Charges :
 core                        :    68.00000000    
 valence                     :    14.00000000    
 interstitial                :    16.07421684    
 muffin-tins (core leakage)
  species :    1 (Pb)
   atom    1                 :    65.92578316     (   36.88118193    )
 total in muffin-tins        :    65.92578316    
 total calculated charge     :    45.11952107    
 total charge                :    82.00000000    
 error                       :    36.88047893    

RMS change in Kohn-Sham potential (target) :   0.3791533332E-01 (  0.1000000000E-05)
Absolute change in total energy (target)   :    8.090304720     (  0.1000000000E-03)

Time (CPU seconds) :         5.74

+--------------------+
| Loop number :   12 |
+--------------------+

Energies :
 Fermi                       :      36.4820743435    
 sum of eigenvalues          :     -5327.69387309    
 electron kinetic            :      28197.6641309    
 core electron kinetic       :      24626.2896502    
 Coulomb                     :     -49051.2183424    
 Coulomb potential           :     -32765.1825703    
 nuclear-nuclear             :     -12036.0705396    
 electron-nuclear            :     -41265.1130354    
 Hartree                     :      4249.96523257    
 Madelung                    :     -32668.6270573    
 xc potential                :     -760.175433649    
 exchange                    :     -561.606621877    
 correlation                 :     -10.5642421793    
 electron entropic           :    -0.197534574034E-04
 total energy                :     -21425.7250954    

Density of states at Fermi energy :    6.624833421    
 (states/Hartree/unit cell)

Estimated indirect band gap :   0.2307971944E-01
 from k-point     13 to k-point      2
Estimated direct band gap   :   0.9219402580    
 at k-point     15

Charges :
 core                        :    68.00000000    
 valence                     :    14.00000000    
 interstitial                :    16.07666815    
 muffin-tins (core leakage)
  species :    1 (Pb)
   atom    1                 :    65.92333185     (   36.88484859    )
 total in muffin-tins        :    65.92333185    
 total calculated charge     :    45.11585407    
 total charge                :    82.00000000    
 error                       :    36.88414593    

RMS change in Kohn-Sham potential (target) :   0.2462900623E-01 (  0.1000000000E-05)
Absolute change in total energy (target)   :    3.540494620     (  0.1000000000E-03)

Time (CPU seconds) :         5.99

+--------------------+
| Loop number :   13 |
+--------------------+

Energies :
 Fermi                       :      36.4974552588    
 sum of eigenvalues          :     -5326.91991901    
 electron kinetic            :      28198.6032610    
 core electron kinetic       :      24626.9305666    
 Coulomb                     :     -49051.4567903    
 Coulomb potential           :     -32765.3469009    
 nuclear-nuclear             :     -12036.0705396    
 electron-nuclear            :     -41265.4256006    
 Hartree                     :      4250.03934984    
 Madelung                    :     -32668.7833399    
 xc potential                :     -760.176279076    
 exchange                    :     -561.607256826    
 correlation                 :     -10.5642409398    
 electron entropic           :    -0.197325350175E-04
 total energy                :     -21425.0250468    

Density of states at Fermi energy :    6.619169465    
 (states/Hartree/unit cell)

Estimated indirect band gap :   0.2304480675E-01
 from k-point     13 to k-point      2
Estimated direct band gap   :   0.9220022698    
 at k-point     15

Charges :
 core                        :    68.00000000    
 valence                     :    14.00000000    
 interstitial                :    16.07747879    
 muffin-tins (core leakage)
  species :    1 (Pb)
   atom    1                 :    65.92252121     (   36.88615628    )
 total in muffin-tins        :    65.92252121    
 total calculated charge     :    45.11454617    
 total charge                :    82.00000000    
 error                       :    36.88545383    

RMS change in Kohn-Sham potential (target) :   0.1372662656E-01 (  0.1000000000E-05)
Absolute change in total energy (target)   :    1.585172211     (  0.1000000000E-03)

Time (CPU seconds) :         6.25

+--------------------+
| Loop number :   14 |
+--------------------+

Energies :
 Fermi                       :      36.5038663222    
 sum of eigenvalues          :     -5326.51933553    
 electron kinetic            :      28199.1331165    
 core electron kinetic       :      24627.3210550    
 Coulomb                     :     -49051.6306099    
 Coulomb potential           :     -32765.4745119    
 nuclear-nuclear             :     -12036.0705396    
 electron-nuclear            :     -41265.6456288    
 Hartree                     :      4250.08555843    
 Madelung                    :     -32668.8933540    
 xc potential                :     -760.177940124    
 exchange                    :     -561.608500286    
 correlation                 :     -10.5642439548    
 electron entropic           :    -0.197212978727E-04
 total energy                :     -21424.6702574    

Density of states at Fermi energy :    6.616131332    
 (states/Hartree/unit cell)

Estimated indirect band gap :   0.2305789378E-01
 from k-point     13 to k-point      2
Estimated direct band gap   :   0.9219730037    
 at k-point     15

Charges :
 core                        :    68.00000000    
 valence                     :    14.00000000    
 interstitial                :    16.07768119    
 muffin-tins (core leakage)
  species :    1 (Pb)
   atom    1                 :    65.92231881     (   36.88651308    )
 total in muffin-tins        :    65.92231881    
 total calculated charge     :    45.11418921    
 total charge                :    82.00000000    
 error                       :    36.88581079    

RMS change in Kohn-Sham potential (target) :   0.6814197582E-02 (  0.1000000000E-05)
Absolute change in total energy (target)   :   0.7510825252     (  0.1000000000E-03)

Time (CPU seconds) :         6.49

+--------------------+
| Loop number :   15 |
+--------------------+

Energies :
 Fermi                       :      36.5064739535    
 sum of eigenvalues          :     -5326.31275807    
 electron kinetic            :      28199.4085987    
 core electron kinetic       :      24627.5340928    
 Coulomb                     :     -49051.7186042    
 Coulomb potential           :     -32765.5423504    
 nuclear-nuclear             :     -12036.0705396    
 electron-nuclear            :     -41265.7537788    
 Hartree                     :      4250.10571419    
 Madelung                    :     -32668.9474290    
 xc potential                :     -760.179006289    
 exchange                    :     -561.609298083    
 correlation                 :     -10.5642463315    
 electron entropic           :    -0.197166310283E-04
 total energy                :     -21424.4835697    

Density of states at Fermi energy :    6.614870384    
 (states/Hartree/unit cell)

Estimated indirect band gap :   0.2307317398E-01
 from k-point     13 to k-point      2
Estimated direct band gap   :   0.9219418514    
 at k-point     15

Charges :
 core                        :    68.00000000    
 valence                     :    14.00000000    
 interstitial                :    16.07769339    
 muffin-tins (core leakage)
  species :    1 (Pb)
   atom    1                 :    65.92230661     (   36.88654632    )
 total in muffin-tins        :    65.92230661    
 total calculated charge     :    45.11415587    
 total charge                :    82.00000000    
 error                       :    36.88584413    

RMS change in Kohn-Sham potential (target) :   0.3067990318E-02 (  0.1000000000E-05)
Absolute change in total energy (target)   :   0.3744583268     (  0.1000000000E-03)

Time (CPU seconds) :         6.74

+--------------------+
| Loop number :   16 |
+--------------------+

Energies :
 Fermi                       :      36.5074877607    
 sum of eigenvalues          :     -5326.21159998    
 electron kinetic            :      28199.5403556    
 core electron kinetic       :      24627.6390246    
 Coulomb                     :     -49051.7555092    
 Coulomb potential           :     -32765.5724261    
 nuclear-nuclear             :     -12036.0705396    
 electron-nuclear            :     -41265.7975131    
 Hartree                     :      4250.11254350    
 Madelung                    :     -32668.9692961    
 xc potential                :     -760.179529410    
 exchange                    :     -561.609689434    
 correlation                 :     -10.5642476175    
 electron entropic           :    -0.197153330622E-04
 total energy                :     -21424.3891104    

Density of states at Fermi energy :    6.614519766    
 (states/Hartree/unit cell)

Estimated indirect band gap :   0.2308211937E-01
 from k-point     13 to k-point      2
Estimated direct band gap   :   0.9219236111    
 at k-point     15

Charges :
 core                        :    68.00000000    
 valence                     :    14.00000000    
 interstitial                :    16.07766653    
 muffin-tins (core leakage)
  species :    1 (Pb)
   atom    1                 :    65.92233347     (   36.88650468    )
 total in muffin-tins        :    65.92233347    
 total calculated charge     :    45.11419744    
 total charge                :    82.00000000    
 error                       :    36.88580256    

RMS change in Kohn-Sham potential (target) :   0.1257377160E-02 (  0.1000000000E-05)
Absolute change in total energy (target)   :   0.1880738484     (  0.1000000000E-03)

Time (CPU seconds) :         7.00

+--------------------+
| Loop number :   17 |
+--------------------+

Energies :
 Fermi                       :      36.5078572376    
 sum of eigenvalues          :     -5326.16645686    
 electron kinetic            :      28199.5975024    
 core electron kinetic       :      24627.6851903    
 Coulomb                     :     -49051.7689227    
 Coulomb potential           :     -32765.5842135    
 nuclear-nuclear             :     -12036.0705396    
 electron-nuclear            :     -41265.8125527    
 Hartree                     :      4250.11416957    
 Madelung                    :     -32668.9768159    
 xc potential                :     -760.179745761    
 exchange                    :     -561.609851261    
 correlation                 :     -10.5642481852    
 electron entropic           :    -0.197153274266E-04
 total energy                :     -21424.3455394    

Density of states at Fermi energy :    6.614518244    
 (states/Hartree/unit cell)

Estimated indirect band gap :   0.2308624285E-01
 from k-point     13 to k-point      2
Estimated direct band gap   :   0.9219152408    
 at k-point     15

Charges :
 core                        :    68.00000000    
 valence                     :    14.00000000    
 interstitial                :    16.07764483    
 muffin-tins (core leakage)
  species :    1 (Pb)
   atom    1                 :    65.92235517     (   36.88646753    )
 total in muffin-tins        :    65.92235517    
 total calculated charge     :    45.11423455    
 total charge                :    82.00000000    
 error                       :    36.88576545    

RMS change in Kohn-Sham potential (target) :   0.4737827681E-03 (  0.1000000000E-05)
Absolute change in total energy (target)   :   0.9058947237E-01 (  0.1000000000E-03)

Time (CPU seconds) :         7.26

+--------------------+
| Loop number :   18 |
+--------------------+

Energies :
 Fermi                       :      36.5079821863    
 sum of eigenvalues          :     -5326.14856296    
 electron kinetic            :      28199.6195246    
 core electron kinetic       :      24627.7027687    
 Coulomb                     :     -49051.7729969    
 Coulomb potential           :     -32765.5882698    
 nuclear-nuclear             :     -12036.0705396    
 electron-nuclear            :     -41265.8166448    
 Hartree                     :      4250.11418751    
 Madelung                    :     -32668.9788620    
 xc potential                :     -760.179817782    
 exchange                    :     -561.609905124    
 correlation                 :     -10.5642483825    
 electron entropic           :    -0.197155978624E-04
 total energy                :     -21424.3276455    

Density of states at Fermi energy :    6.614591293    
 (states/Hartree/unit cell)

Estimated indirect band gap :   0.2308797131E-01
 from k-point     13 to k-point      2
Estimated direct band gap   :   0.9219120813    
 at k-point     15

Charges :
 core                        :    68.00000000    
 valence                     :    14.00000000    
 interstitial                :    16.07763417    
 muffin-tins (core leakage)
  species :    1 (Pb)
   atom    1                 :    65.92236583     (   36.88644819    )
 total in muffin-tins        :    65.92236583    
 total calculated charge     :    45.11425388    
 total charge                :    82.00000000    
 error                       :    36.88574612    

RMS change in Kohn-Sham potential (target) :   0.1808564244E-03 (  0.1000000000E-05)
Absolute change in total energy (target)   :   0.4054128701E-01 (  0.1000000000E-03)

Time (CPU seconds) :         7.51

+--------------------+
| Loop number :   19 |
+--------------------+

Energies :
 Fermi                       :      36.5080210829    
 sum of eigenvalues          :     -5326.14220707    
 electron kinetic            :      28199.6268240    
 core electron kinetic       :      24627.7082546    
 Coulomb                     :     -49051.7736325    
 Coulomb potential           :     -32765.5891991    
 nuclear-nuclear             :     -12036.0705396    
 electron-nuclear            :     -41265.8169867    
 Hartree                     :      4250.11389383    
 Madelung                    :     -32668.9790329    
 xc potential                :     -760.179831982    
 exchange                    :     -561.609915740    
 correlation                 :     -10.5642484251    
 electron entropic           :    -0.197158018853E-04
 total energy                :     -21424.3209924    

Density of states at Fermi energy :    6.614646405    
 (states/Hartree/unit cell)

Estimated indirect band gap :   0.2308862852E-01
 from k-point     13 to k-point      2
Estimated direct band gap   :   0.9219111527    
 at k-point     15

Charges :
 core                        :    68.00000000    
 valence                     :    14.00000000    
 interstitial                :    16.07763042    
 muffin-tins (core leakage)
  species :    1 (Pb)
   atom    1                 :    65.92236958     (   36.88644097    )
 total in muffin-tins        :    65.92236958    
 total calculated charge     :    45.11426109    
 total charge                :    82.00000000    
 error                       :    36.88573891    

RMS change in Kohn-Sham potential (target) :   0.8078525630E-04 (  0.1000000000E-05)
Absolute change in total energy (target)   :   0.1678842697E-01 (  0.1000000000E-03)

Time (CPU seconds) :         7.76

+--------------------+
| Loop number :   20 |
+--------------------+

Energies :
 Fermi                       :      36.5080319152    
 sum of eigenvalues          :     -5326.14015295    
 electron kinetic            :      28199.6288372    
 core electron kinetic       :      24627.7095158    
 Coulomb                     :     -49051.7733487    
 Coulomb potential           :     -32765.5891609    
 nuclear-nuclear             :     -12036.0705396    
 electron-nuclear            :     -41265.8164573    
 Hartree                     :      4250.11364820    
 Madelung                    :     -32668.9787682    
 xc potential                :     -760.179829245    
 exchange                    :     -561.609913691    
 correlation                 :     -10.5642484205    
 electron entropic           :    -0.197159003361E-04
 total energy                :     -21424.3186933    

Density of states at Fermi energy :    6.614672999    
 (states/Hartree/unit cell)

Estimated indirect band gap :   0.2308884157E-01
 from k-point     13 to k-point      2
Estimated direct band gap   :   0.9219110077    
 at k-point     15

Charges :
 core                        :    68.00000000    
 valence                     :    14.00000000    
 interstitial                :    16.07762951    
 muffin-tins (core leakage)
  species :    1 (Pb)
   atom    1                 :    65.92237049     (   36.88643893    )
 total in muffin-tins        :    65.92237049    
 total calculated charge     :    45.11426312    
 total charge                :    82.00000000    
 error                       :    36.88573688    

RMS change in Kohn-Sham potential (target) :   0.3820389683E-04 (  0.1000000000E-05)
Absolute change in total energy (target)   :   0.6496184033E-02 (  0.1000000000E-03)

Time (CPU seconds) :         8.00

+--------------------+
| Loop number :   21 |
+--------------------+

Energies :
 Fermi                       :      36.5080354048    
 sum of eigenvalues          :     -5326.13948712    
 electron kinetic            :      28199.6292643    
 core electron kinetic       :      24627.7096740    
 Coulomb                     :     -49051.7729564    
 Coulomb potential           :     -32765.5889278    
 nuclear-nuclear             :     -12036.0705396    
 electron-nuclear            :     -41265.8159058    
 Hartree                     :      4250.11348897    
 Madelung                    :     -32668.9784925    
 xc potential                :     -760.179823601    
 exchange                    :     -561.609909468    
 correlation                 :     -10.5642484068    
 electron entropic           :    -0.197159360469E-04
 total energy                :     -21424.3178696    

Density of states at Fermi energy :    6.614682645    
 (states/Hartree/unit cell)

Estimated indirect band gap :   0.2308890040E-01
 from k-point     13 to k-point      2
Estimated direct band gap   :   0.9219110729    
 at k-point     15

Charges :
 core                        :    68.00000000    
 valence                     :    14.00000000    
 interstitial                :    16.07762946    
 muffin-tins (core leakage)
  species :    1 (Pb)
   atom    1                 :    65.92237054     (   36.88643859    )
 total in muffin-tins        :    65.92237054    
 total calculated charge     :    45.11426346    
 total charge                :    82.00000000    
 error                       :    36.88573654    

RMS change in Kohn-Sham potential (target) :   0.1594764130E-04 (  0.1000000000E-05)
Absolute change in total energy (target)   :   0.2447692776E-02 (  0.1000000000E-03)

Time (CPU seconds) :         8.25

+--------------------+
| Loop number :   22 |
+--------------------+

Energies :
 Fermi                       :      36.5080357868    
 sum of eigenvalues          :     -5326.13929095    
 electron kinetic            :      28199.6293582    
 core electron kinetic       :      24627.7096755    
 Coulomb                     :     -49051.7727906    
 Coulomb potential           :     -32765.5888279    
 nuclear-nuclear             :     -12036.0705396    
 electron-nuclear            :     -41265.8156742    
 Hartree                     :      4250.11342312    
 Madelung                    :     -32668.9783767    
 xc potential                :     -760.179821207    
 exchange                    :     -561.609907677    
 correlation                 :     -10.5642484009    
 electron entropic           :    -0.197159467929E-04
 total energy                :     -21424.3176082    

Density of states at Fermi energy :    6.614685548    
 (states/Hartree/unit cell)

Estimated indirect band gap :   0.2308891489E-01
 from k-point     13 to k-point      2
Estimated direct band gap   :   0.9219111056    
 at k-point     15

Charges :
 core                        :    68.00000000    
 valence                     :    14.00000000    
 interstitial                :    16.07762948    
 muffin-tins (core leakage)
  species :    1 (Pb)
   atom    1                 :    65.92237052     (   36.88643851    )
 total in muffin-tins        :    65.92237052    
 total calculated charge     :    45.11426355    
 total charge                :    82.00000000    
 error                       :    36.88573645    

RMS change in Kohn-Sham potential (target) :   0.6057477402E-05 (  0.1000000000E-05)
Absolute change in total energy (target)   :   0.8733486611E-03 (  0.1000000000E-03)

Time (CPU seconds) :         8.54

+--------------------+
| Loop number :   23 |
+--------------------+

Energies :
 Fermi                       :      36.5080354064    
 sum of eigenvalues          :     -5326.13924142    
 electron kinetic            :      28199.6293875    
 core electron kinetic       :      24627.7096725    
 Coulomb                     :     -49051.7727559    
 Coulomb potential           :     -32765.5888082    
 nuclear-nuclear             :     -12036.0705396    
 electron-nuclear            :     -41265.8156245    
 Hartree                     :      4250.11340816    
 Madelung                    :     -32668.9783518    
 xc potential                :     -760.179820672    
 exchange                    :     -561.609907277    
 correlation                 :     -10.5642483996    
 electron entropic           :    -0.197159497661E-04
 total energy                :     -21424.3175439    

Density of states at Fermi energy :    6.614686351    
 (states/Hartree/unit cell)

Estimated indirect band gap :   0.2308891756E-01
 from k-point     13 to k-point      2
Estimated direct band gap   :   0.9219111093    
 at k-point     15

Charges :
 core                        :    68.00000000    
 valence                     :    14.00000000    
 interstitial                :    16.07762947    
 muffin-tins (core leakage)
  species :    1 (Pb)
   atom    1                 :    65.92237053     (   36.88643845    )
 total in muffin-tins        :    65.92237053    
 total calculated charge     :    45.11426360    
 total charge                :    82.00000000    
 error                       :    36.88573640    

RMS change in Kohn-Sham potential (target) :   0.2185993889E-05 (  0.1000000000E-05)
Absolute change in total energy (target)   :   0.2826943528E-03 (  0.1000000000E-03)

Time (CPU seconds) :         8.79

+--------------------+
| Loop number :   24 |
+--------------------+

Energies :
 Fermi                       :      36.5080351119    
 sum of eigenvalues          :     -5326.13923006    
 electron kinetic            :      28199.6293978    
 core electron kinetic       :      24627.7096716    
 Coulomb                     :     -49051.7727500    
 Coulomb potential           :     -32765.5888073    
 nuclear-nuclear             :     -12036.0705396    
 electron-nuclear            :     -41265.8156135    
 Hartree                     :      4250.11340310    
 Madelung                    :     -32668.9783463    
 xc potential                :     -760.179820610    
 exchange                    :     -561.609907230    
 correlation                 :     -10.5642483994    
 electron entropic           :    -0.197159506366E-04
 total energy                :     -21424.3175275    

Density of states at Fermi energy :    6.614686586    
 (states/Hartree/unit cell)

Estimated indirect band gap :   0.2308891736E-01
 from k-point     13 to k-point      2
Estimated direct band gap   :   0.9219111073    
 at k-point     15

Charges :
 core                        :    68.00000000    
 valence                     :    14.00000000    
 interstitial                :    16.07762946    
 muffin-tins (core leakage)
  species :    1 (Pb)
   atom    1                 :    65.92237054     (   36.88643843    )
 total in muffin-tins        :    65.92237054    
 total calculated charge     :    45.11426363    
 total charge                :    82.00000000    
 error                       :    36.88573637    

RMS change in Kohn-Sham potential (target) :   0.7461390844E-06 (  0.1000000000E-05)
Absolute change in total energy (target)   :   0.8707123925E-04 (  0.1000000000E-03)

Convergence targets achieved

Time (CPU seconds) :         9.04

+--------------------+
| Loop number :   25 |
+--------------------+

Energies :
 Fermi                       :      36.5080349838    
 sum of eigenvalues          :     -5326.13922776    
 electron kinetic            :      28199.6294006    
 core electron kinetic       :      24627.7096713    
 Coulomb                     :     -49051.7727502    
 Coulomb potential           :     -32765.5888077    
 nuclear-nuclear             :     -12036.0705396    
 electron-nuclear            :     -41265.8156135    
 Hartree                     :      4250.11340290    
 Madelung                    :     -32668.9783463    
 xc potential                :     -760.179820601    
 exchange                    :     -561.609907224    
 correlation                 :     -10.5642483994    
 electron entropic           :    -0.197159510699E-04
 total energy                :     -21424.3175250    

Density of states at Fermi energy :    6.614686703    
 (states/Hartree/unit cell)

Estimated indirect band gap :   0.2308891690E-01
 from k-point     13 to k-point      2
Estimated direct band gap   :   0.9219111060    
 at k-point     15

Charges :
 core                        :    68.00000000    
 valence                     :    14.00000000    
 interstitial                :    16.07762946    
 muffin-tins (core leakage)
  species :    1 (Pb)
   atom    1                 :    65.92237054     (   36.88643842    )
 total in muffin-tins        :    65.92237054    
 total calculated charge     :    45.11426364    
 total charge                :    82.00000000    
 error                       :    36.88573636    

+------------------------------+
| Self-consistent loop stopped |
+------------------------------+

Wrote STATE.OUT

Timings (CPU seconds) :
 initialisation                        :         2.92
 Hamiltonian and overlap matrix set up :         1.57
 first-variational eigenvalue equation :         1.08
 charge density calculation            :         2.93
 potential calculation                 :         0.79
 total                                 :         9.29

+----------------------------+
| Elk version 4.0.15 stopped |
+----------------------------+
