+----------------------------+
| Elk version 4.0.15 started |
+----------------------------+

Date (YYYY-MM-DD) : 2019-01-04
Time (hh:mm:ss)   : 09:23:24

All units are atomic (Hartree, Bohr, etc.)

+-------------------------------------------------+
| Ground-state run starting from atomic densities |
+-------------------------------------------------+

Lattice vectors :
   0.000000000       5.150000000       5.150000000    
   5.150000000       0.000000000       5.150000000    
   5.150000000       5.150000000       0.000000000    

Reciprocal lattice vectors :
 -0.6100179910      0.6100179910      0.6100179910    
  0.6100179910     -0.6100179910      0.6100179910    
  0.6100179910      0.6100179910     -0.6100179910    

Unit cell volume      :    273.1817500    
Brillouin zone volume :   0.9080043357    

Species :    1 (Pb)
 parameters loaded from : Pb.in
 name : lead
 nuclear charge    :   -82.00000000    
 electronic charge :    82.00000000    
 atomic mass :    377702.4940    
 muffin-tin radius :    2.800000000    
 number of radial points in muffin-tin :    697
 number on inner part of muffin-tin    :    501
 atomic positions (lattice), magnetic fields (Cartesian) :
   1 :   0.00000000  0.00000000  0.00000000    0.00000000  0.00000000  0.00000000

Total number of atoms per unit cell :    1

Spin treatment :
 spin-unpolarised

Number of Bravais lattice symmetries :   48
Number of crystal symmetries         :   48
Crystal has inversion symmetry
Real symmetric eigensolver will be used

k-point grid :     11    11    11
k-point offset :    0.000000000       0.000000000       0.000000000    
k-point set is reduced with full crystal symmetry group
Total number of k-points :       56

Muffin-tin radius times maximum |G+k| :    1.000000000    
 using average radius
Maximum |G+k| for APW functions       :   0.3571428571    
Maximum (1/2)|G+k|^2                  :   0.6377551020E-01
Maximum |G| for potential and density :    12.00000000    
Constant for pseudocharge density :    8
Radial integration step length :    4

G-vector grid sizes :     30    30    30
Number of G-vectors :     7823

Maximum angular momentum used for
 APW functions                      :    8
 H and O matrix elements outer loop :    7
 outer part of muffin-tin           :    7
 inner part of muffin-tin           :    3

Total nuclear charge    :   -82.00000000    
Total core charge       :    68.00000000    
Total valence charge    :    14.00000000    
Total excess charge     :    0.000000000    
Total electronic charge :    82.00000000    

Effective Wigner radius, r_s :   0.9265092091    

Number of empty states         :    4
Total number of valence states :   12
Total number of core states    :   68

Total number of local-orbitals :   15

Exchange-correlation functional :      3     0     0
 Perdew-Wang/Ceperley-Alder, Phys. Rev. B 45, 13244 (1992)
 Local density approximation (LDA)

Smearing type :    3
 Fermi-Dirac
Smearing width :   0.1000000000E-02
Effective electronic temperature (K) :    315.7750425    

Mixing type :    1
 Adaptive linear mixing

Density and potential initialised from atomic data

+------------------------------+
| Self-consistent loop started |
+------------------------------+

+--------------------+
| Loop number :    1 |
+--------------------+

Energies :
 Fermi                       :     0.988231019949    
 sum of eigenvalues          :     -12948.2904378    
 electron kinetic            :      24303.2953260    
 core electron kinetic       :      24211.8163959    
 Coulomb                     :     -44915.1429374    
 Coulomb potential           :     -36745.8994680    
 nuclear-nuclear             :     -1277.13477836    
 electron-nuclear            :     -50530.1168501    
 Hartree                     :      6892.10869105    
 Madelung                    :     -26542.1932034    
 xc potential                :     -505.686295785    
 exchange                    :     -372.182328977    
 correlation                 :     -8.68955868254    
 electron entropic           :    -0.331904089228E-02
 total energy                :     -20992.7228181    

Density of states at Fermi energy :    1130.039037    
 (states/Hartree/unit cell)

Estimated indirect band gap :   0.3987758046    
 from k-point      1 to k-point      2
Estimated direct band gap   :   0.3987758046    
 at k-point      1

Charges :
 core                        :    68.00000000    
 valence                     :    14.00000000    
 interstitial                :   0.3326551929    
 muffin-tins (core leakage)
  species :    1 (Pb)
   atom    1                 :    81.66734481     (  0.1217407903E-02)
 total in muffin-tins        :    81.66734481    
 total calculated charge     :    81.99848459    
 total charge                :    82.00000000    
 error                       :   0.1515408885E-02

Time (CPU seconds) :         3.33

+--------------------+
| Loop number :    2 |
+--------------------+

Energies :
 Fermi                       :      1.02631438172    
 sum of eigenvalues          :     -12940.3994319    
 electron kinetic            :      24313.1977735    
 core electron kinetic       :      24207.2204451    
 Coulomb                     :     -44910.3290437    
 Coulomb potential           :     -36748.1492277    
 nuclear-nuclear             :     -1277.13477836    
 electron-nuclear            :     -50518.2393029    
 Hartree                     :      6885.04503762    
 Madelung                    :     -26536.2544298    
 xc potential                :     -505.447977722    
 exchange                    :     -372.006096869    
 correlation                 :     -8.68633875605    
 electron entropic           :    -0.331904101925E-02
 total energy                :     -20977.8270248    

Density of states at Fermi energy :    1130.039043    
 (states/Hartree/unit cell)

Estimated indirect band gap :   0.4080170625    
 from k-point      1 to k-point     16
Estimated direct band gap   :   0.4080170625    
 at k-point      1

Charges :
 core                        :    68.00000000    
 valence                     :    14.00000000    
 interstitial                :   0.3346070323    
 muffin-tins (core leakage)
  species :    1 (Pb)
   atom    1                 :    81.66539297     (  0.1329218173E-02)
 total in muffin-tins        :    81.66539297    
 total calculated charge     :    81.99832510    
 total charge                :    82.00000000    
 error                       :   0.1674896224E-02

RMS change in Kohn-Sham potential (target) :   0.4209065621     (  0.1000000000E-05)
Absolute change in total energy (target)   :    14.89579324     (  0.1000000000E-03)

Time (CPU seconds) :         4.02

+--------------------+
| Loop number :    3 |
+--------------------+

Energies :
 Fermi                       :      1.07539574509    
 sum of eigenvalues          :     -12930.8045484    
 electron kinetic            :      24325.4343183    
 core electron kinetic       :      24204.3059139    
 Coulomb                     :     -44904.8207547    
 Coulomb potential           :     -36751.0719907    
 nuclear-nuclear             :     -1277.13477836    
 electron-nuclear            :     -50504.2999619    
 Hartree                     :      6876.61398563    
 Madelung                    :     -26529.2847593    
 xc potential                :     -505.166875995    
 exchange                    :     -371.798319011    
 correlation                 :     -8.68242436621    
 electron entropic           :    -0.331904120122E-02
 total energy                :     -20959.8704988    

Density of states at Fermi energy :    1130.039052    
 (states/Hartree/unit cell)

Estimated indirect band gap :   0.4194545078    
 from k-point      1 to k-point      8
Estimated direct band gap   :   0.4194545078    
 at k-point      1

Charges :
 core                        :    68.00000000    
 valence                     :    14.00000000    
 interstitial                :   0.3369320560    
 muffin-tins (core leakage)
  species :    1 (Pb)
   atom    1                 :    81.66306794     (  0.1483756652E-02)
 total in muffin-tins        :    81.66306794    
 total calculated charge     :    81.99810639    
 total charge                :    82.00000000    
 error                       :   0.1893608168E-02

RMS change in Kohn-Sham potential (target) :   0.2942438081     (  0.1000000000E-05)
Absolute change in total energy (target)   :    21.68047435     (  0.1000000000E-03)

Time (CPU seconds) :         4.71

+--------------------+
| Loop number :    4 |
+--------------------+

Energies :
 Fermi                       :      1.12709973617    
 sum of eigenvalues          :     -12921.6107074    
 electron kinetic            :      24337.4512967    
 core electron kinetic       :      24203.6194077    
 Coulomb                     :     -44900.1492159    
 Coulomb potential           :     -36754.1481260    
 nuclear-nuclear             :     -1277.13477836    
 electron-nuclear            :     -50491.8807492    
 Hartree                     :      6868.86631162    
 Madelung                    :     -26523.0751530    
 xc potential                :     -504.913878083    
 exchange                    :     -371.611470553    
 correlation                 :     -8.67870372291    
 electron entropic           :    -0.331904141278E-02
 total energy                :     -20942.9914126    

Density of states at Fermi energy :    1130.039064    
 (states/Hartree/unit cell)

Estimated indirect band gap :   0.4308750767    
 from k-point      1 to k-point      3
Estimated direct band gap   :   0.4308750767    
 at k-point      1

Charges :
 core                        :    68.00000000    
 valence                     :    14.00000000    
 interstitial                :   0.3392015330    
 muffin-tins (core leakage)
  species :    1 (Pb)
   atom    1                 :    81.66079847     (  0.1656022672E-02)
 total in muffin-tins        :    81.66079847    
 total calculated charge     :    81.99786155    
 total charge                :    82.00000000    
 error                       :   0.2138447597E-02

RMS change in Kohn-Sham potential (target) :   0.1804602195     (  0.1000000000E-05)
Absolute change in total energy (target)   :    22.29920482     (  0.1000000000E-03)

Time (CPU seconds) :         5.41

+--------------------+
| Loop number :    5 |
+--------------------+

Energies :
 Fermi                       :      1.17392343025    
 sum of eigenvalues          :     -12914.3445310    
 electron kinetic            :      24347.2627578    
 core electron kinetic       :      24204.7375807    
 Coulomb                     :     -44897.2382910    
 Coulomb potential           :     -36756.8709384    
 nuclear-nuclear             :     -1277.13477836    
 electron-nuclear            :     -50483.3360868    
 Hartree                     :      6863.23257419    
 Madelung                    :     -26518.8028218    
 xc potential                :     -504.736350399    
 exchange                    :     -371.480562899    
 correlation                 :     -8.67583620874    
 electron entropic           :    -0.331904161956E-02
 total energy                :     -20930.1352513    

Density of states at Fermi energy :    1130.039074    
 (states/Hartree/unit cell)

Estimated indirect band gap :   0.4406704347    
 from k-point      1 to k-point      5
Estimated direct band gap   :   0.4406704347    
 at k-point      1

Charges :
 core                        :    68.00000000    
 valence                     :    14.00000000    
 interstitial                :   0.3411229868    
 muffin-tins (core leakage)
  species :    1 (Pb)
   atom    1                 :    81.65887701     (  0.1814257700E-02)
 total in muffin-tins        :    81.65887701    
 total calculated charge     :    81.99763117    
 total charge                :    82.00000000    
 error                       :   0.2368834173E-02

RMS change in Kohn-Sham potential (target) :   0.1000423644     (  0.1000000000E-05)
Absolute change in total energy (target)   :    18.43096244     (  0.1000000000E-03)

Time (CPU seconds) :         6.10

+--------------------+
| Loop number :    6 |
+--------------------+

Energies :
 Fermi                       :      1.21128224314    
 sum of eigenvalues          :     -12909.4859357    
 electron kinetic            :      24354.0678400    
 core electron kinetic       :      24206.6483755    
 Coulomb                     :     -44896.0636806    
 Coulomb potential           :     -36758.9124596    
 nuclear-nuclear             :     -1277.13477836    
 electron-nuclear            :     -50478.9453448    
 Hartree                     :      6860.01644263    
 Madelung                    :     -26516.6074508    
 xc potential                :     -504.641316098    
 exchange                    :     -371.410702409    
 correlation                 :     -8.67402696445    
 electron entropic           :    -0.331904179875E-02
 total energy                :     -20922.0838890    

Density of states at Fermi energy :    1130.039084    
 (states/Hartree/unit cell)

Estimated indirect band gap :   0.4481126241    
 from k-point      1 to k-point     14
Estimated direct band gap   :   0.4481126241    
 at k-point      1

Charges :
 core                        :    68.00000000    
 valence                     :    14.00000000    
 interstitial                :   0.3425750123    
 muffin-tins (core leakage)
  species :    1 (Pb)
   atom    1                 :    81.65742499     (  0.1934194369E-02)
 total in muffin-tins        :    81.65742499    
 total calculated charge     :    81.99744702    
 total charge                :    82.00000000    
 error                       :   0.2552980863E-02

RMS change in Kohn-Sham potential (target) :   0.5426003565E-01 (  0.1000000000E-05)
Absolute change in total energy (target)   :    12.65910291     (  0.1000000000E-03)

Time (CPU seconds) :         6.78

+--------------------+
| Loop number :    7 |
+--------------------+

Energies :
 Fermi                       :      1.23799962289    
 sum of eigenvalues          :     -12906.6377007    
 electron kinetic            :      24358.1703353    
 core electron kinetic       :      24208.4174447    
 Coulomb                     :     -44895.9446806    
 Coulomb potential           :     -36760.2033457    
 nuclear-nuclear             :     -1277.13477836    
 electron-nuclear            :     -50477.4164587    
 Hartree                     :      6858.60655650    
 Madelung                    :     -26515.8430077    
 xc potential                :     -504.604690297    
 exchange                    :     -371.383974208    
 correlation                 :     -8.67308266945    
 electron entropic           :    -0.331904193479E-02
 total energy                :     -20917.8347212    

Density of states at Fermi energy :    1130.039091    
 (states/Hartree/unit cell)

Estimated indirect band gap :   0.4532219112    
 from k-point      1 to k-point     17
Estimated direct band gap   :   0.4532219112    
 at k-point      1

Charges :
 core                        :    68.00000000    
 valence                     :    14.00000000    
 interstitial                :   0.3435719520    
 muffin-tins (core leakage)
  species :    1 (Pb)
   atom    1                 :    81.65642805     (  0.2009657572E-02)
 total in muffin-tins        :    81.65642805    
 total calculated charge     :    81.99731990    
 total charge                :    82.00000000    
 error                       :   0.2680100799E-02

RMS change in Kohn-Sham potential (target) :   0.3068087108E-01 (  0.1000000000E-05)
Absolute change in total energy (target)   :    7.413943587     (  0.1000000000E-03)

Time (CPU seconds) :         7.47

+--------------------+
| Loop number :    8 |
+--------------------+

Energies :
 Fermi                       :      1.25535598105    
 sum of eigenvalues          :     -12905.0833030    
 electron kinetic            :      24360.3961607    
 core electron kinetic       :      24209.6116170    
 Coulomb                     :     -44896.1550297    
 Coulomb potential           :     -36760.8838742    
 nuclear-nuclear             :     -1277.13477836    
 electron-nuclear            :     -50477.1566284    
 Hartree                     :      6858.13637709    
 Madelung                    :     -26515.7130926    
 xc potential                :     -504.595589467    
 exchange                    :     -371.377481602    
 correlation                 :     -8.67266032339    
 electron entropic           :    -0.331904202720E-02
 total energy                :     -20915.8123299    

Density of states at Fermi energy :    1130.039096    
 (states/Hartree/unit cell)

Estimated indirect band gap :   0.4564350387    
 from k-point      1 to k-point      4
Estimated direct band gap   :   0.4564350387    
 at k-point      1

Charges :
 core                        :    68.00000000    
 valence                     :    14.00000000    
 interstitial                :   0.3442011649    
 muffin-tins (core leakage)
  species :    1 (Pb)
   atom    1                 :    81.65579884     (  0.2049707302E-02)
 total in muffin-tins        :    81.65579884    
 total calculated charge     :    81.99724205    
 total charge                :    82.00000000    
 error                       :   0.2757948290E-02

RMS change in Kohn-Sham potential (target) :   0.1752679288E-01 (  0.1000000000E-05)
Absolute change in total energy (target)   :    3.875877129     (  0.1000000000E-03)

Time (CPU seconds) :         8.16

+--------------------+
| Loop number :    9 |
+--------------------+

Energies :
 Fermi                       :      1.26566923707    
 sum of eigenvalues          :     -12904.2451666    
 electron kinetic            :      24361.5266728    
 core electron kinetic       :      24210.2569386    
 Coulomb                     :     -44896.3165606    
 Coulomb potential           :     -36761.1775961    
 nuclear-nuclear             :     -1277.13477836    
 electron-nuclear            :     -50477.1859685    
 Hartree                     :      6858.00418619    
 Madelung                    :     -26515.7277626    
 xc potential                :     -504.594243312    
 exchange                    :     -371.376610390    
 correlation                 :     -8.67248559262    
 electron entropic           :    -0.331904208424E-02
 total energy                :     -20914.8423029    

Density of states at Fermi energy :    1130.039099    
 (states/Hartree/unit cell)

Estimated indirect band gap :   0.4582955761    
 from k-point      1 to k-point     16
Estimated direct band gap   :   0.4582955761    
 at k-point      1

Charges :
 core                        :    68.00000000    
 valence                     :    14.00000000    
 interstitial                :   0.3445678607    
 muffin-tins (core leakage)
  species :    1 (Pb)
   atom    1                 :    81.65543214     (  0.2067984703E-02)
 total in muffin-tins        :    81.65543214    
 total calculated charge     :    81.99719855    
 total charge                :    82.00000000    
 error                       :   0.2801452565E-02

RMS change in Kohn-Sham potential (target) :   0.9538072659E-02 (  0.1000000000E-05)
Absolute change in total energy (target)   :    1.938996371     (  0.1000000000E-03)

Time (CPU seconds) :         8.86

+--------------------+
| Loop number :   10 |
+--------------------+

Energies :
 Fermi                       :      1.27126379655    
 sum of eigenvalues          :     -12903.7991236    
 electron kinetic            :      24362.0736600    
 core electron kinetic       :      24210.5571048    
 Coulomb                     :     -44896.3742847    
 Coulomb potential           :     -36761.2790030    
 nuclear-nuclear             :     -1277.13477836    
 electron-nuclear            :     -50477.2000098    
 Hartree                     :      6857.96050339    
 Madelung                    :     -26515.7347832    
 xc potential                :     -504.593780612    
 exchange                    :     -371.376320332    
 correlation                 :     -8.67241384658    
 electron entropic           :    -0.331904211598E-02
 total energy                :     -20914.3526780    

Density of states at Fermi energy :    1130.039101    
 (states/Hartree/unit cell)

Estimated indirect band gap :   0.4592819120    
 from k-point      1 to k-point     18
Estimated direct band gap   :   0.4592819120    
 at k-point      1

Charges :
 core                        :    68.00000000    
 valence                     :    14.00000000    
 interstitial                :   0.3447642829    
 muffin-tins (core leakage)
  species :    1 (Pb)
   atom    1                 :    81.65523572     (  0.2075202731E-02)
 total in muffin-tins        :    81.65523572    
 total calculated charge     :    81.99717598    
 total charge                :    82.00000000    
 error                       :   0.2824018996E-02

RMS change in Kohn-Sham potential (target) :   0.4735309340E-02 (  0.1000000000E-05)
Absolute change in total energy (target)   :   0.9743739752     (  0.1000000000E-03)

Time (CPU seconds) :         9.55

+--------------------+
| Loop number :   11 |
+--------------------+

Energies :
 Fermi                       :      1.27400982312    
 sum of eigenvalues          :     -12903.5778557    
 electron kinetic            :      24362.3222589    
 core electron kinetic       :      24210.6861313    
 Coulomb                     :     -44896.3840586    
 Coulomb potential           :     -36761.3067405    
 nuclear-nuclear             :     -1277.13477836    
 electron-nuclear            :     -50477.1918199    
 Hartree                     :      6857.94253971    
 Madelung                    :     -26515.7306883    
 xc potential                :     -504.593374122    
 exchange                    :     -371.376038275    
 correlation                 :     -8.67238513305    
 electron entropic           :    -0.331904213225E-02
 total energy                :     -20914.1135421    

Density of states at Fermi energy :    1130.039102    
 (states/Hartree/unit cell)

Estimated indirect band gap :   0.4597540817    
 from k-point      1 to k-point     24
Estimated direct band gap   :   0.4597540817    
 at k-point      1

Charges :
 core                        :    68.00000000    
 valence                     :    14.00000000    
 interstitial                :   0.3448598871    
 muffin-tins (core leakage)
  species :    1 (Pb)
   atom    1                 :    81.65514011     (  0.2077627590E-02)
 total in muffin-tins        :    81.65514011    
 total calculated charge     :    81.99716508    
 total charge                :    82.00000000    
 error                       :   0.2834919782E-02

RMS change in Kohn-Sham potential (target) :   0.2092710155E-02 (  0.1000000000E-05)
Absolute change in total energy (target)   :   0.4827293886     (  0.1000000000E-03)

Time (CPU seconds) :        10.24

+--------------------+
| Loop number :   12 |
+--------------------+

Energies :
 Fermi                       :      1.27521473327    
 sum of eigenvalues          :     -12903.4799871    
 electron kinetic            :      24362.4265303    
 core electron kinetic       :      24210.7398406    
 Coulomb                     :     -44896.3838885    
 Coulomb potential           :     -36761.3133659    
 nuclear-nuclear             :     -1277.13477836    
 electron-nuclear            :     -50477.1848544    
 Hartree                     :      6857.93574427    
 Madelung                    :     -26515.7272056    
 xc potential                :     -504.593151508    
 exchange                    :     -371.375879843    
 correlation                 :     -8.67237440320    
 electron entropic           :    -0.331904213903E-02
 total energy                :     -20914.0089315    

Density of states at Fermi energy :    1130.039102    
 (states/Hartree/unit cell)

Estimated indirect band gap :   0.4599546944    
 from k-point      1 to k-point      1
Estimated direct band gap   :   0.4599546944    
 at k-point      1

Charges :
 core                        :    68.00000000    
 valence                     :    14.00000000    
 interstitial                :   0.3449015691    
 muffin-tins (core leakage)
  species :    1 (Pb)
   atom    1                 :    81.65509843     (  0.2078298067E-02)
 total in muffin-tins        :    81.65509843    
 total calculated charge     :    81.99716019    
 total charge                :    82.00000000    
 error                       :   0.2839805751E-02

RMS change in Kohn-Sham potential (target) :   0.8161875238E-03 (  0.1000000000E-05)
Absolute change in total energy (target)   :   0.2252928835     (  0.1000000000E-03)

Time (CPU seconds) :        10.98

+--------------------+
| Loop number :   13 |
+--------------------+

Energies :
 Fermi                       :      1.27567959286    
 sum of eigenvalues          :     -12903.4419705    
 electron kinetic            :      24362.4663944    
 core electron kinetic       :      24210.7613965    
 Coulomb                     :     -44896.3834781    
 Coulomb potential           :     -36761.3153025    
 nuclear-nuclear             :     -1277.13477836    
 electron-nuclear            :     -50477.1820969    
 Hartree                     :      6857.93339718    
 Madelung                    :     -26515.7258268    
 xc potential                :     -504.593062349    
 exchange                    :     -371.375815993    
 correlation                 :     -8.67237060622    
 electron entropic           :    -0.331904214092E-02
 total energy                :     -20913.9685893    

Density of states at Fermi energy :    1130.039102    
 (states/Hartree/unit cell)

Estimated indirect band gap :   0.4600286469    
 from k-point      1 to k-point     18
Estimated direct band gap   :   0.4600286469    
 at k-point      1

Charges :
 core                        :    68.00000000    
 valence                     :    14.00000000    
 interstitial                :   0.3449175515    
 muffin-tins (core leakage)
  species :    1 (Pb)
   atom    1                 :    81.65508245     (  0.2078441210E-02)
 total in muffin-tins        :    81.65508245    
 total calculated charge     :    81.99715818    
 total charge                :    82.00000000    
 error                       :   0.2841815757E-02

RMS change in Kohn-Sham potential (target) :   0.2781203143E-03 (  0.1000000000E-05)
Absolute change in total energy (target)   :   0.9666546514E-01 (  0.1000000000E-03)

Time (CPU seconds) :        11.67

+--------------------+
| Loop number :   14 |
+--------------------+

Energies :
 Fermi                       :      1.27583317580    
 sum of eigenvalues          :     -12903.4292746    
 electron kinetic            :      24362.4798048    
 core electron kinetic       :      24210.7692373    
 Coulomb                     :     -44896.3834936    
 Coulomb potential           :     -36761.3160451    
 nuclear-nuclear             :     -1277.13477836    
 electron-nuclear            :     -50477.1813855    
 Hartree                     :      6857.93267019    
 Madelung                    :     -26515.7254711    
 xc potential                :     -504.593034382    
 exchange                    :     -371.375795998    
 correlation                 :     -8.67236937340    
 electron entropic           :    -0.331904214096E-02
 total energy                :     -20913.9551732    

Density of states at Fermi energy :    1130.039102    
 (states/Hartree/unit cell)

Estimated indirect band gap :   0.4600514282    
 from k-point      1 to k-point      1
Estimated direct band gap   :   0.4600514282    
 at k-point      1

Charges :
 core                        :    68.00000000    
 valence                     :    14.00000000    
 interstitial                :   0.3449227915    
 muffin-tins (core leakage)
  species :    1 (Pb)
   atom    1                 :    81.65507721     (  0.2078454553E-02)
 total in muffin-tins        :    81.65507721    
 total calculated charge     :    81.99715745    
 total charge                :    82.00000000    
 error                       :   0.2842554562E-02

RMS change in Kohn-Sham potential (target) :   0.8140813100E-04 (  0.1000000000E-05)
Absolute change in total energy (target)   :   0.3758246667E-01 (  0.1000000000E-03)

Time (CPU seconds) :        12.36

+--------------------+
| Loop number :   15 |
+--------------------+

Energies :
 Fermi                       :      1.27587504861    
 sum of eigenvalues          :     -12903.4257362    
 electron kinetic            :      24362.4835817    
 core electron kinetic       :      24210.7716261    
 Coulomb                     :     -44896.3835448    
 Coulomb potential           :     -36761.3162907    
 nuclear-nuclear             :     -1277.13477836    
 electron-nuclear            :     -50477.1812421    
 Hartree                     :      6857.93247566    
 Madelung                    :     -26515.7253994    
 xc potential                :     -504.593027142    
 exchange                    :     -371.375790841    
 correlation                 :     -8.67236902992    
 electron entropic           :    -0.331904214191E-02
 total energy                :     -20913.9514420    

Density of states at Fermi energy :    1130.039102    
 (states/Hartree/unit cell)

Estimated indirect band gap :   0.4600569331    
 from k-point      1 to k-point     24
Estimated direct band gap   :   0.4600569331    
 at k-point      1

Charges :
 core                        :    68.00000000    
 valence                     :    14.00000000    
 interstitial                :   0.3449242031    
 muffin-tins (core leakage)
  species :    1 (Pb)
   atom    1                 :    81.65507580     (  0.2078447003E-02)
 total in muffin-tins        :    81.65507580    
 total calculated charge     :    81.99715721    
 total charge                :    82.00000000    
 error                       :   0.2842788426E-02

RMS change in Kohn-Sham potential (target) :   0.1990697423E-04 (  0.1000000000E-05)
Absolute change in total energy (target)   :   0.1312684653E-01 (  0.1000000000E-03)

Time (CPU seconds) :        13.05

+--------------------+
| Loop number :   16 |
+--------------------+

Energies :
 Fermi                       :      1.27588399652    
 sum of eigenvalues          :     -12903.4249470    
 electron kinetic            :      24362.4844232    
 core electron kinetic       :      24210.7721959    
 Coulomb                     :     -44896.3835552    
 Coulomb potential           :     -36761.3163447    
 nuclear-nuclear             :     -1277.13477836    
 electron-nuclear            :     -50477.1812090    
 Hartree                     :      6857.93243214    
 Madelung                    :     -26515.7253828    
 xc potential                :     -504.593025543    
 exchange                    :     -371.375789703    
 correlation                 :     -8.67236895297    
 electron entropic           :    -0.331904214176E-02
 total energy                :     -20913.9506097    

Density of states at Fermi energy :    1130.039102    
 (states/Hartree/unit cell)

Estimated indirect band gap :   0.4600578505    
 from k-point      1 to k-point      1
Estimated direct band gap   :   0.4600578505    
 at k-point      1

Charges :
 core                        :    68.00000000    
 valence                     :    14.00000000    
 interstitial                :   0.3449244993    
 muffin-tins (core leakage)
  species :    1 (Pb)
   atom    1                 :    81.65507550     (  0.2078441782E-02)
 total in muffin-tins        :    81.65507550    
 total calculated charge     :    81.99715715    
 total charge                :    82.00000000    
 error                       :   0.2842851076E-02

RMS change in Kohn-Sham potential (target) :   0.3897067735E-05 (  0.1000000000E-05)
Absolute change in total energy (target)   :   0.4113999508E-02 (  0.1000000000E-03)

Time (CPU seconds) :        13.75

+--------------------+
| Loop number :   17 |
+--------------------+

Energies :
 Fermi                       :      1.27588539848    
 sum of eigenvalues          :     -12903.4248153    
 electron kinetic            :      24362.4845599    
 core electron kinetic       :      24210.7722935    
 Coulomb                     :     -44896.3835550    
 Coulomb potential           :     -36761.3163499    
 nuclear-nuclear             :     -1277.13477836    
 electron-nuclear            :     -50477.1812035    
 Hartree                     :      6857.93242678    
 Madelung                    :     -26515.7253801    
 xc potential                :     -504.593025304    
 exchange                    :     -371.375789533    
 correlation                 :     -8.67236894093    
 electron entropic           :    -0.331904214202E-02
 total energy                :     -20913.9504727    

Density of states at Fermi energy :    1130.039102    
 (states/Hartree/unit cell)

Estimated indirect band gap :   0.4600579332    
 from k-point      1 to k-point      2
Estimated direct band gap   :   0.4600579332    
 at k-point      1

Charges :
 core                        :    68.00000000    
 valence                     :    14.00000000    
 interstitial                :   0.3449245440    
 muffin-tins (core leakage)
  species :    1 (Pb)
   atom    1                 :    81.65507546     (  0.2078439807E-02)
 total in muffin-tins        :    81.65507546    
 total calculated charge     :    81.99715714    
 total charge                :    82.00000000    
 error                       :   0.2842862562E-02

RMS change in Kohn-Sham potential (target) :   0.5758470442E-06 (  0.1000000000E-05)
Absolute change in total energy (target)   :   0.1165491045E-02 (  0.1000000000E-03)

Time (CPU seconds) :        14.44

+--------------------+
| Loop number :   18 |
+--------------------+

Energies :
 Fermi                       :      1.27588552488    
 sum of eigenvalues          :     -12903.4247995    
 electron kinetic            :      24362.4845769    
 core electron kinetic       :      24210.7723067    
 Coulomb                     :     -44896.3835529    
 Coulomb potential           :     -36761.3163512    
 nuclear-nuclear             :     -1277.13477836    
 electron-nuclear            :     -50477.1811979    
 Hartree                     :      6857.93242339    
 Madelung                    :     -26515.7253773    
 xc potential                :     -504.593025190    
 exchange                    :     -371.375789449    
 correlation                 :     -8.67236893832    
 electron entropic           :    -0.331904214111E-02
 total energy                :     -20913.9504535    

Density of states at Fermi energy :    1130.039102    
 (states/Hartree/unit cell)

Estimated indirect band gap :   0.4600579155    
 from k-point      1 to k-point      7
Estimated direct band gap   :   0.4600579155    
 at k-point      1

Charges :
 core                        :    68.00000000    
 valence                     :    14.00000000    
 interstitial                :   0.3449245485    
 muffin-tins (core leakage)
  species :    1 (Pb)
   atom    1                 :    81.65507545     (  0.2078439738E-02)
 total in muffin-tins        :    81.65507545    
 total calculated charge     :    81.99715713    
 total charge                :    82.00000000    
 error                       :   0.2842866496E-02

RMS change in Kohn-Sham potential (target) :   0.6166528449E-07 (  0.1000000000E-05)
Absolute change in total energy (target)   :   0.3105845317E-03 (  0.1000000000E-03)

Time (CPU seconds) :        15.13

+--------------------+
| Loop number :   19 |
+--------------------+

Energies :
 Fermi                       :      1.27588550741    
 sum of eigenvalues          :     -12903.4248002    
 electron kinetic            :      24362.4845766    
 core electron kinetic       :      24210.7723072    
 Coulomb                     :     -44896.3835531    
 Coulomb potential           :     -36761.3163516    
 nuclear-nuclear             :     -1277.13477836    
 electron-nuclear            :     -50477.1811979    
 Hartree                     :      6857.93242316    
 Madelung                    :     -26515.7253773    
 xc potential                :     -504.593025203    
 exchange                    :     -371.375789459    
 correlation                 :     -8.67236893809    
 electron entropic           :    -0.331904214108E-02
 total energy                :     -20913.9504540    

Density of states at Fermi energy :    1130.039102    
 (states/Hartree/unit cell)

Estimated indirect band gap :   0.4600578976    
 from k-point      1 to k-point      1
Estimated direct band gap   :   0.4600578976    
 at k-point      1

Charges :
 core                        :    68.00000000    
 valence                     :    14.00000000    
 interstitial                :   0.3449245476    
 muffin-tins (core leakage)
  species :    1 (Pb)
   atom    1                 :    81.65507545     (  0.2078439641E-02)
 total in muffin-tins        :    81.65507545    
 total calculated charge     :    81.99715713    
 total charge                :    82.00000000    
 error                       :   0.2842867549E-02

RMS change in Kohn-Sham potential (target) :   0.9485007550E-08 (  0.1000000000E-05)
Absolute change in total energy (target)   :   0.7716053733E-04 (  0.1000000000E-03)

Convergence targets achieved

Time (CPU seconds) :        15.82

+--------------------+
| Loop number :   20 |
+--------------------+

Energies :
 Fermi                       :      1.27588549356    
 sum of eigenvalues          :     -12903.4248006    
 electron kinetic            :      24362.4845761    
 core electron kinetic       :      24210.7723069    
 Coulomb                     :     -44896.3835531    
 Coulomb potential           :     -36761.3163515    
 nuclear-nuclear             :     -1277.13477836    
 electron-nuclear            :     -50477.1811979    
 Hartree                     :      6857.93242321    
 Madelung                    :     -26515.7253773    
 xc potential                :     -504.593025185    
 exchange                    :     -371.375789446    
 correlation                 :     -8.67236893783    
 electron entropic           :    -0.331904214142E-02
 total energy                :     -20913.9504544    

Density of states at Fermi energy :    1130.039102    
 (states/Hartree/unit cell)

Estimated indirect band gap :   0.4600578877    
 from k-point      1 to k-point      2
Estimated direct band gap   :   0.4600578877    
 at k-point      1

Charges :
 core                        :    68.00000000    
 valence                     :    14.00000000    
 interstitial                :   0.3449245463    
 muffin-tins (core leakage)
  species :    1 (Pb)
   atom    1                 :    81.65507545     (  0.2078439029E-02)
 total in muffin-tins        :    81.65507545    
 total calculated charge     :    81.99715713    
 total charge                :    82.00000000    
 error                       :   0.2842867111E-02

+------------------------------+
| Self-consistent loop stopped |
+------------------------------+

Wrote STATE.OUT

Timings (CPU seconds) :
 initialisation                        :         2.59
 Hamiltonian and overlap matrix set up :         1.12
 first-variational eigenvalue equation :         0.16
 charge density calculation            :        11.59
 potential calculation                 :         1.05
 total                                 :        16.51

+----------------------------+
| Elk version 4.0.15 stopped |
+----------------------------+
